
     Program PWSCF v.5.0        starts on 17Oct2012 at  6:20:47 

     This program is part of the open-source Quantum ESPRESSO suite
     for quantum simulation of materials; please cite
         "P. Giannozzi et al., J. Phys.:Condens. Matter 21 395502 (2009);
          URL http://www.quantum-espresso.org", 
     in publications or presentations arising from this work. More details at
     http://www.quantum-espresso.org/quote.php

     Parallel version (MPI), running on    32 processors
     R & G space division:  proc/pool =   32

     Current dimensions of program PWSCF are:
     Max number of different atomic species (ntypx) = 10
     Max number of k-points (npk) =  40000
     Max angular momentum in pseudopotentials (lmaxx) =  3
     Waiting for input...
     Reading input from standard input

     -------------------------------------
     Parameters for Dispersion Correction:
     -------------------------------------
       atom      VdW radius       C_6     

        C          2.744         60.710
        H          1.892          4.857

     Subspace diagonalization in iterative solution of the eigenvalue problem:
     scalapack distributed-memory algorithm (size of sub-group:  4*  4 procs)

 
     Parallelization info
     --------------------
     sticks:   dense  smooth     PW     G-vecs:    dense   smooth      PW
     Min         123     123     35                 4557     4557     689
     Max         124     124     36                 4560     4560     692
     Sum        3945    3945   1123               145859   145859   22083
 


     bravais-lattice index     =           12
     lattice parameter (alat)  =      15.3030  a.u.
     unit-cell volume          =    2322.4138 (a.u.)^3
     number of atoms/cell      =           36
     number of atomic types    =            2
     number of electrons       =        96.00
     number of Kohn-Sham states=           60
     kinetic-energy cutoff     =      60.0000  Ry
     charge density cutoff     =     240.0000  Ry
     convergence threshold     =      1.0E-10
     mixing beta               =       0.7000
     number of iterations used =            8  plain     mixing
     Exchange-correlation      = PBE ( 1 4 3 4 0)
     EXX-fraction              =        0.00

     celldm(1)=  15.303000  celldm(2)=   1.068410  celldm(3)=   0.735120
     celldm(4)=  -0.564967  celldm(5)=   0.000000  celldm(6)=   0.000000

     crystal axes: (cart. coord. in units of alat)
               a(1) = (   1.000000   0.000000   0.000000 )  
               a(2) = (  -0.603616   0.881560   0.000000 )  
               a(3) = (   0.000000   0.000000   0.735120 )  

     reciprocal axes: (cart. coord. in units 2 pi/alat)
               b(1) = (  1.000000  0.684714  0.000000 )  
               b(2) = (  0.000000  1.134353  0.000000 )  
               b(3) = (  0.000000  0.000000  1.360322 )  


     PseudoPot. # 1 for  C read from file:
     ./C.pbe-nc.UPF
     MD5 check sum: 9ec4d2fea3fa290a03776c403a8768f8
     Pseudo is Norm-conserving, Zval =  4.0
     Generated using "atomic" code by A. Dal Corso (espresso distribution)
     Using radial grid of 1073 points,  1 beta functions with: 
                l(1) =   0

     PseudoPot. # 2 for  H read from file:
     ./H.pbe-nc.UPF
     MD5 check sum: 3005e891d4d495510fb2e7093b0d94f0
     Pseudo is Norm-conserving, Zval =  1.0
     Generated using "atomic" code by A. Dal Corso (espresso distribution)
     Using radial grid of  929 points,  0 beta functions with: 

     atomic species   valence    mass     pseudopotential
        C              4.00    12.01100      C( 1.00)
        H              1.00     1.00794      H( 1.00)

     No symmetry found


                                    s                        frac. trans.

      isym =  1     identity                                     

 cryst.   s( 1) = (     1          0          0      )
                  (     0          1          0      )
                  (     0          0          1      )

 cart.    s( 1) = (  1.0000000  0.0000000  0.0000000 )
                  (  0.0000000  1.0000000  0.0000000 )
                  (  0.0000000  0.0000000  1.0000000 )


     point group C_1 (1)    
     there are  1 classes
     the character table:

       E    
A      1.00

     the symmetry operations in each class:
     E        1

   Cartesian axes

     site n.     atom                  positions (alat units)
         1           C   tau(   1) = (  -0.1047125   0.2990902   0.0108898  )
         2           C   tau(   2) = (   0.1340918  -0.2787578  -0.0098579  )
         3           C   tau(   3) = (  -0.0084430   0.2081112   0.1181480  )
         4           C   tau(   4) = (   0.0380373  -0.1877484  -0.1172915  )
         5           C   tau(   5) = (   0.0406993   0.0448075   0.0777858  )
         6           C   tau(   6) = (  -0.0109092  -0.0243437  -0.0770748  )
         7           C   tau(   7) = (   0.1393176  -0.0518214   0.1857752  )
         8           C   tau(   8) = (  -0.1095869   0.0723285  -0.1849704  )
         9           C   tau(   9) = (  -0.1559255   0.2306504  -0.1418301  )
        10           C   tau(  10) = (   0.1854015  -0.2102608   0.1428065  )
        11           H   tau(  11) = (  -0.1417942   0.4242230   0.0443986  )
        12           H   tau(  12) = (   0.1709240  -0.4040166  -0.0431638  )
        13           H   tau(  13) = (   0.0306320   0.2596650   0.2362873  )
        14           H   tau(  14) = (  -0.0011039  -0.2394018  -0.2353747  )
        15           H   tau(  15) = (   0.1787689   0.0015192   0.3029750  )
        16           H   tau(  16) = (  -0.1490367   0.0190562  -0.3022079  )
        17           H   tau(  17) = (  -0.2332115   0.3027198  -0.2254650  )
        18           H   tau(  18) = (   0.2624817  -0.2824419   0.2265323  )
        19           C   tau(  19) = (   0.6343904  -0.2794229   0.3784081  )
        20           C   tau(  20) = (   0.3963578   0.2987268   0.3557880  )
        21           C   tau(  21) = (   0.5379567  -0.1881263   0.4852570  )
        22           C   tau(  22) = (   0.4925583   0.2072877   0.2488487  )
        23           C   tau(  23) = (   0.4891714  -0.0248040   0.4444856  )
        24           C   tau(  24) = (   0.5412452   0.0439267   0.2895885  )
        25           C   tau(  25) = (   0.3904798   0.0722813   0.5520113  )
        26           C   tau(  26) = (   0.6400860  -0.0530653   0.1821074  )
        27           C   tau(  27) = (   0.6860880  -0.2113651   0.2256856  )
        28           C   tau(  28) = (   0.3446941   0.2306716   0.5085291  )
        29           H   tau(  29) = (   0.6711812  -0.4045613   0.4122419  )
        30           H   tau(  30) = (   0.3596944   0.4239260   0.3220434  )
        31           H   tau(  31) = (   0.4984875  -0.2394704   0.6033582  )
        32           H   tau(  32) = (   0.5320520   0.2585602   0.1307253  )
        33           H   tau(  33) = (   0.3506488   0.0193015   0.6692632  )
        34           H   tau(  34) = (   0.6798505  -0.0000823   0.0648538  )
        35           H   tau(  35) = (   0.7634146  -0.2837589   0.1423769  )
        36           H   tau(  36) = (   0.2675382   0.3031527   0.5919264  )

   Crystallographic axes

     site n.     atom                  positions (cryst. coord.)
         1           C   tau(   1) = (  0.1000789  0.3392740  0.0148136  )
         2           C   tau(   2) = ( -0.0567777 -0.3162099 -0.0134099  )
         3           C   tau(   3) = (  0.1340538  0.2360717  0.1607194  )
         4           C   tau(   4) = ( -0.0905167 -0.2129730 -0.1595542  )
         5           C   tau(   5) = (  0.0713796  0.0508276  0.1058138  )
         6           C   tau(   6) = ( -0.0275777 -0.0276143 -0.1048466  )
         7           C   tau(   7) = (  0.1038347 -0.0587838  0.2527141  )
         8           C   tau(   8) = ( -0.0600625  0.0820461 -0.2516194  )
         9           C   tau(   9) = (  0.0020041  0.2616391 -0.1929347  )
        10           C   tau(  10) = (  0.0414329 -0.2385101  0.1942628  )
        11           H   tau(  11) = (  0.1486774  0.4812188  0.0603963  )
        12           H   tau(  12) = ( -0.1057120 -0.4582976 -0.0587167  )
        13           H   tau(  13) = (  0.2084284  0.2945518  0.3214268  )
        14           H   tau(  14) = ( -0.1650257 -0.2715663 -0.3201854  )
        15           H   tau(  15) = (  0.1798091  0.0017233  0.4121435  )
        16           H   tau(  16) = ( -0.1359887  0.0216164 -0.4111001  )
        17           H   tau(  17) = ( -0.0259349  0.3433912 -0.3067050  )
        18           H   tau(  18) = (  0.0690896 -0.3203889  0.3081568  )
        19           C   tau(  19) = (  0.4430656 -0.3169643  0.5147569  )
        20           C   tau(  20) = (  0.6009003  0.3388617  0.4839863  )
        21           C   tau(  21) = (  0.4091440 -0.2134017  0.6601059  )
        22           C   tau(  22) = (  0.6344912  0.2351375  0.3385143  )
        23           C   tau(  23) = (  0.4721877 -0.0281365  0.6046436  )
        24           C   tau(  24) = (  0.5713224  0.0498284  0.3939337  )
        25           C   tau(  25) = (  0.4399718  0.0819925  0.7509132  )
        26           C   tau(  26) = (  0.6037515 -0.0601948  0.2477248  )
        27           C   tau(  27) = (  0.5413633 -0.2397627  0.3070051  )
        28           C   tau(  28) = (  0.5026383  0.2616631  0.6917634  )
        29           H   tau(  29) = (  0.3941723 -0.4589155  0.5607818  )
        30           H   tau(  30) = (  0.6499626  0.4808818  0.4380828  )
        31           H   tau(  31) = (  0.3345188 -0.2716440  0.8207615  )
        32           H   tau(  32) = (  0.7090919  0.2932987  0.1778285  )
        33           H   tau(  33) = (  0.3638648  0.0218948  0.9104135  )
        34           H   tau(  34) = (  0.6797941 -0.0000934  0.0882221  )
        35           H   tau(  35) = (  0.5691209 -0.3218829  0.1936785  )
        36           H   tau(  36) = (  0.4751111  0.3438823  0.8052105  )

     number of k points=   112
                       cart. coord. in units 2pi/alat
        k(    1) = (   0.0000000   0.0000000   0.0000000), wk =   0.0092593
        k(    2) = (   0.0000000   0.0000000   0.2267204), wk =   0.0185185
        k(    3) = (   0.0000000   0.0000000   0.4534407), wk =   0.0185185
        k(    4) = (   0.0000000   0.0000000  -0.6801611), wk =   0.0092593
        k(    5) = (   0.0000000   0.1890589   0.0000000), wk =   0.0185185
        k(    6) = (   0.0000000   0.1890589   0.2267204), wk =   0.0185185
        k(    7) = (   0.0000000   0.1890589   0.4534407), wk =   0.0185185
        k(    8) = (   0.0000000   0.1890589  -0.6801611), wk =   0.0185185
        k(    9) = (   0.0000000   0.3781178   0.0000000), wk =   0.0185185
        k(   10) = (   0.0000000   0.3781178   0.2267204), wk =   0.0185185
        k(   11) = (   0.0000000   0.3781178   0.4534407), wk =   0.0185185
        k(   12) = (   0.0000000   0.3781178  -0.6801611), wk =   0.0185185
        k(   13) = (   0.0000000  -0.5671767   0.0000000), wk =   0.0092593
        k(   14) = (   0.0000000  -0.5671767   0.2267204), wk =   0.0185185
        k(   15) = (   0.0000000  -0.5671767   0.4534407), wk =   0.0185185
        k(   16) = (   0.0000000  -0.5671767  -0.6801611), wk =   0.0092593
        k(   17) = (   0.1666667   0.1141190   0.0000000), wk =   0.0185185
        k(   18) = (   0.1666667   0.1141190   0.2267204), wk =   0.0185185
        k(   19) = (   0.1666667   0.1141190   0.4534407), wk =   0.0185185
        k(   20) = (   0.1666667   0.1141190  -0.6801611), wk =   0.0185185
        k(   21) = (   0.1666667   0.3031779   0.0000000), wk =   0.0185185
        k(   22) = (   0.1666667   0.3031779   0.2267204), wk =   0.0185185
        k(   23) = (   0.1666667   0.3031779   0.4534407), wk =   0.0185185
        k(   24) = (   0.1666667   0.3031779  -0.6801611), wk =   0.0185185
        k(   25) = (   0.1666667   0.4922368   0.0000000), wk =   0.0185185
        k(   26) = (   0.1666667   0.4922368   0.2267204), wk =   0.0185185
        k(   27) = (   0.1666667   0.4922368   0.4534407), wk =   0.0185185
        k(   28) = (   0.1666667   0.4922368  -0.6801611), wk =   0.0185185
        k(   29) = (   0.1666667  -0.4530576   0.0000000), wk =   0.0185185
        k(   30) = (   0.1666667  -0.4530576   0.2267204), wk =   0.0185185
        k(   31) = (   0.1666667  -0.4530576   0.4534407), wk =   0.0185185
        k(   32) = (   0.1666667  -0.4530576  -0.6801611), wk =   0.0185185
        k(   33) = (   0.1666667  -0.2639987   0.0000000), wk =   0.0185185
        k(   34) = (   0.1666667  -0.2639987   0.2267204), wk =   0.0185185
        k(   35) = (   0.1666667  -0.2639987   0.4534407), wk =   0.0185185
        k(   36) = (   0.1666667  -0.2639987  -0.6801611), wk =   0.0185185
        k(   37) = (   0.1666667  -0.0749398   0.0000000), wk =   0.0185185
        k(   38) = (   0.1666667  -0.0749398   0.2267204), wk =   0.0185185
        k(   39) = (   0.1666667  -0.0749398   0.4534407), wk =   0.0185185
        k(   40) = (   0.1666667  -0.0749398  -0.6801611), wk =   0.0185185
        k(   41) = (   0.3333333   0.2282381   0.0000000), wk =   0.0185185
        k(   42) = (   0.3333333   0.2282381   0.2267204), wk =   0.0185185
        k(   43) = (   0.3333333   0.2282381   0.4534407), wk =   0.0185185
        k(   44) = (   0.3333333   0.2282381  -0.6801611), wk =   0.0185185
        k(   45) = (   0.3333333   0.4172970   0.0000000), wk =   0.0185185
        k(   46) = (   0.3333333   0.4172970   0.2267204), wk =   0.0185185
        k(   47) = (   0.3333333   0.4172970   0.4534407), wk =   0.0185185
        k(   48) = (   0.3333333   0.4172970  -0.6801611), wk =   0.0185185
        k(   49) = (   0.3333333   0.6063559   0.0000000), wk =   0.0185185
        k(   50) = (   0.3333333   0.6063559   0.2267204), wk =   0.0185185
        k(   51) = (   0.3333333   0.6063559   0.4534407), wk =   0.0185185
        k(   52) = (   0.3333333   0.6063559  -0.6801611), wk =   0.0185185
        k(   53) = (   0.3333333  -0.3389386   0.0000000), wk =   0.0185185
        k(   54) = (   0.3333333  -0.3389386   0.2267204), wk =   0.0185185
        k(   55) = (   0.3333333  -0.3389386   0.4534407), wk =   0.0185185
        k(   56) = (   0.3333333  -0.3389386  -0.6801611), wk =   0.0185185
        k(   57) = (   0.3333333  -0.1498797   0.0000000), wk =   0.0185185
        k(   58) = (   0.3333333  -0.1498797   0.2267204), wk =   0.0185185
        k(   59) = (   0.3333333  -0.1498797   0.4534407), wk =   0.0185185
        k(   60) = (   0.3333333  -0.1498797  -0.6801611), wk =   0.0185185
        k(   61) = (   0.3333333   0.0391792   0.0000000), wk =   0.0185185
        k(   62) = (   0.3333333   0.0391792   0.2267204), wk =   0.0185185
        k(   63) = (   0.3333333   0.0391792   0.4534407), wk =   0.0185185
        k(   64) = (   0.3333333   0.0391792  -0.6801611), wk =   0.0185185
        k(   65) = (  -0.5000000  -0.3423571   0.0000000), wk =   0.0092593
        k(   66) = (  -0.5000000  -0.3423571   0.2267204), wk =   0.0185185
        k(   67) = (  -0.5000000  -0.3423571   0.4534407), wk =   0.0185185
        k(   68) = (  -0.5000000  -0.3423571  -0.6801611), wk =   0.0092593
        k(   69) = (  -0.5000000  -0.1532982   0.0000000), wk =   0.0185185
        k(   70) = (  -0.5000000  -0.1532982   0.2267204), wk =   0.0185185
        k(   71) = (  -0.5000000  -0.1532982   0.4534407), wk =   0.0185185
        k(   72) = (  -0.5000000  -0.1532982  -0.6801611), wk =   0.0185185
        k(   73) = (  -0.5000000   0.0357606   0.0000000), wk =   0.0185185
        k(   74) = (  -0.5000000   0.0357606   0.2267204), wk =   0.0185185
        k(   75) = (  -0.5000000   0.0357606   0.4534407), wk =   0.0185185
        k(   76) = (  -0.5000000   0.0357606  -0.6801611), wk =   0.0185185
        k(   77) = (  -0.5000000  -0.9095338   0.0000000), wk =   0.0092593
        k(   78) = (  -0.5000000  -0.9095338   0.2267204), wk =   0.0185185
        k(   79) = (  -0.5000000  -0.9095338   0.4534407), wk =   0.0185185
        k(   80) = (  -0.5000000  -0.9095338  -0.6801611), wk =   0.0092593
        k(   81) = (   0.0000000  -0.1890589   0.2267204), wk =   0.0185185
        k(   82) = (   0.0000000  -0.1890589   0.4534407), wk =   0.0185185
        k(   83) = (   0.0000000  -0.3781178   0.2267204), wk =   0.0185185
        k(   84) = (   0.0000000  -0.3781178   0.4534407), wk =   0.0185185
        k(   85) = (  -0.1666667  -0.1141190   0.2267204), wk =   0.0185185
        k(   86) = (  -0.1666667  -0.1141190   0.4534407), wk =   0.0185185
        k(   87) = (  -0.1666667  -0.3031779   0.2267204), wk =   0.0185185
        k(   88) = (  -0.1666667  -0.3031779   0.4534407), wk =   0.0185185
        k(   89) = (  -0.1666667  -0.4922368   0.2267204), wk =   0.0185185
        k(   90) = (  -0.1666667  -0.4922368   0.4534407), wk =   0.0185185
        k(   91) = (  -0.1666667   0.4530576   0.2267204), wk =   0.0185185
        k(   92) = (  -0.1666667   0.4530576   0.4534407), wk =   0.0185185
        k(   93) = (  -0.1666667   0.2639987   0.2267204), wk =   0.0185185
        k(   94) = (  -0.1666667   0.2639987   0.4534407), wk =   0.0185185
        k(   95) = (  -0.1666667   0.0749398   0.2267204), wk =   0.0185185
        k(   96) = (  -0.1666667   0.0749398   0.4534407), wk =   0.0185185
        k(   97) = (  -0.3333333  -0.2282381   0.2267204), wk =   0.0185185
        k(   98) = (  -0.3333333  -0.2282381   0.4534407), wk =   0.0185185
        k(   99) = (  -0.3333333  -0.4172970   0.2267204), wk =   0.0185185
        k(  100) = (  -0.3333333  -0.4172970   0.4534407), wk =   0.0185185
        k(  101) = (  -0.3333333  -0.6063559   0.2267204), wk =   0.0185185
        k(  102) = (  -0.3333333  -0.6063559   0.4534407), wk =   0.0185185
        k(  103) = (  -0.3333333   0.3389386   0.2267204), wk =   0.0185185
        k(  104) = (  -0.3333333   0.3389386   0.4534407), wk =   0.0185185
        k(  105) = (  -0.3333333   0.1498797   0.2267204), wk =   0.0185185
        k(  106) = (  -0.3333333   0.1498797   0.4534407), wk =   0.0185185
        k(  107) = (  -0.3333333  -0.0391792   0.2267204), wk =   0.0185185
        k(  108) = (  -0.3333333  -0.0391792   0.4534407), wk =   0.0185185
        k(  109) = (   0.5000000   0.1532982   0.2267204), wk =   0.0185185
        k(  110) = (   0.5000000   0.1532982   0.4534407), wk =   0.0185185
        k(  111) = (   0.5000000  -0.0357606   0.2267204), wk =   0.0185185
        k(  112) = (   0.5000000  -0.0357606   0.4534407), wk =   0.0185185

                       cryst. coord.
        k(    1) = (   0.0000000   0.0000000   0.0000000), wk =   0.0092593
        k(    2) = (   0.0000000   0.0000000   0.1666667), wk =   0.0185185
        k(    3) = (   0.0000000   0.0000000   0.3333333), wk =   0.0185185
        k(    4) = (   0.0000000   0.0000000  -0.5000000), wk =   0.0092593
        k(    5) = (   0.0000000   0.1666667   0.0000000), wk =   0.0185185
        k(    6) = (   0.0000000   0.1666667   0.1666667), wk =   0.0185185
        k(    7) = (   0.0000000   0.1666667   0.3333333), wk =   0.0185185
        k(    8) = (   0.0000000   0.1666667  -0.5000000), wk =   0.0185185
        k(    9) = (   0.0000000   0.3333333   0.0000000), wk =   0.0185185
        k(   10) = (   0.0000000   0.3333333   0.1666667), wk =   0.0185185
        k(   11) = (   0.0000000   0.3333333   0.3333333), wk =   0.0185185
        k(   12) = (   0.0000000   0.3333333  -0.5000000), wk =   0.0185185
        k(   13) = (   0.0000000  -0.5000000   0.0000000), wk =   0.0092593
        k(   14) = (   0.0000000  -0.5000000   0.1666667), wk =   0.0185185
        k(   15) = (   0.0000000  -0.5000000   0.3333333), wk =   0.0185185
        k(   16) = (   0.0000000  -0.5000000  -0.5000000), wk =   0.0092593
        k(   17) = (   0.1666667   0.0000000   0.0000000), wk =   0.0185185
        k(   18) = (   0.1666667   0.0000000   0.1666667), wk =   0.0185185
        k(   19) = (   0.1666667   0.0000000   0.3333333), wk =   0.0185185
        k(   20) = (   0.1666667   0.0000000  -0.5000000), wk =   0.0185185
        k(   21) = (   0.1666667   0.1666667   0.0000000), wk =   0.0185185
        k(   22) = (   0.1666667   0.1666667   0.1666667), wk =   0.0185185
        k(   23) = (   0.1666667   0.1666667   0.3333333), wk =   0.0185185
        k(   24) = (   0.1666667   0.1666667  -0.5000000), wk =   0.0185185
        k(   25) = (   0.1666667   0.3333333   0.0000000), wk =   0.0185185
        k(   26) = (   0.1666667   0.3333333   0.1666667), wk =   0.0185185
        k(   27) = (   0.1666667   0.3333333   0.3333333), wk =   0.0185185
        k(   28) = (   0.1666667   0.3333333  -0.5000000), wk =   0.0185185
        k(   29) = (   0.1666667  -0.5000000   0.0000000), wk =   0.0185185
        k(   30) = (   0.1666667  -0.5000000   0.1666667), wk =   0.0185185
        k(   31) = (   0.1666667  -0.5000000   0.3333333), wk =   0.0185185
        k(   32) = (   0.1666667  -0.5000000  -0.5000000), wk =   0.0185185
        k(   33) = (   0.1666667  -0.3333333   0.0000000), wk =   0.0185185
        k(   34) = (   0.1666667  -0.3333333   0.1666667), wk =   0.0185185
        k(   35) = (   0.1666667  -0.3333333   0.3333333), wk =   0.0185185
        k(   36) = (   0.1666667  -0.3333333  -0.5000000), wk =   0.0185185
        k(   37) = (   0.1666667  -0.1666667   0.0000000), wk =   0.0185185
        k(   38) = (   0.1666667  -0.1666667   0.1666667), wk =   0.0185185
        k(   39) = (   0.1666667  -0.1666667   0.3333333), wk =   0.0185185
        k(   40) = (   0.1666667  -0.1666667  -0.5000000), wk =   0.0185185
        k(   41) = (   0.3333333   0.0000000   0.0000000), wk =   0.0185185
        k(   42) = (   0.3333333   0.0000000   0.1666667), wk =   0.0185185
        k(   43) = (   0.3333333   0.0000000   0.3333333), wk =   0.0185185
        k(   44) = (   0.3333333   0.0000000  -0.5000000), wk =   0.0185185
        k(   45) = (   0.3333333   0.1666667   0.0000000), wk =   0.0185185
        k(   46) = (   0.3333333   0.1666667   0.1666667), wk =   0.0185185
        k(   47) = (   0.3333333   0.1666667   0.3333333), wk =   0.0185185
        k(   48) = (   0.3333333   0.1666667  -0.5000000), wk =   0.0185185
        k(   49) = (   0.3333333   0.3333333   0.0000000), wk =   0.0185185
        k(   50) = (   0.3333333   0.3333333   0.1666667), wk =   0.0185185
        k(   51) = (   0.3333333   0.3333333   0.3333333), wk =   0.0185185
        k(   52) = (   0.3333333   0.3333333  -0.5000000), wk =   0.0185185
        k(   53) = (   0.3333333  -0.5000000   0.0000000), wk =   0.0185185
        k(   54) = (   0.3333333  -0.5000000   0.1666667), wk =   0.0185185
        k(   55) = (   0.3333333  -0.5000000   0.3333333), wk =   0.0185185
        k(   56) = (   0.3333333  -0.5000000  -0.5000000), wk =   0.0185185
        k(   57) = (   0.3333333  -0.3333333   0.0000000), wk =   0.0185185
        k(   58) = (   0.3333333  -0.3333333   0.1666667), wk =   0.0185185
        k(   59) = (   0.3333333  -0.3333333   0.3333333), wk =   0.0185185
        k(   60) = (   0.3333333  -0.3333333  -0.5000000), wk =   0.0185185
        k(   61) = (   0.3333333  -0.1666667   0.0000000), wk =   0.0185185
        k(   62) = (   0.3333333  -0.1666667   0.1666667), wk =   0.0185185
        k(   63) = (   0.3333333  -0.1666667   0.3333333), wk =   0.0185185
        k(   64) = (   0.3333333  -0.1666667  -0.5000000), wk =   0.0185185
        k(   65) = (  -0.5000000   0.0000000   0.0000000), wk =   0.0092593
        k(   66) = (  -0.5000000   0.0000000   0.1666667), wk =   0.0185185
        k(   67) = (  -0.5000000   0.0000000   0.3333333), wk =   0.0185185
        k(   68) = (  -0.5000000   0.0000000  -0.5000000), wk =   0.0092593
        k(   69) = (  -0.5000000   0.1666667   0.0000000), wk =   0.0185185
        k(   70) = (  -0.5000000   0.1666667   0.1666667), wk =   0.0185185
        k(   71) = (  -0.5000000   0.1666667   0.3333333), wk =   0.0185185
        k(   72) = (  -0.5000000   0.1666667  -0.5000000), wk =   0.0185185
        k(   73) = (  -0.5000000   0.3333333   0.0000000), wk =   0.0185185
        k(   74) = (  -0.5000000   0.3333333   0.1666667), wk =   0.0185185
        k(   75) = (  -0.5000000   0.3333333   0.3333333), wk =   0.0185185
        k(   76) = (  -0.5000000   0.3333333  -0.5000000), wk =   0.0185185
        k(   77) = (  -0.5000000  -0.5000000   0.0000000), wk =   0.0092593
        k(   78) = (  -0.5000000  -0.5000000   0.1666667), wk =   0.0185185
        k(   79) = (  -0.5000000  -0.5000000   0.3333333), wk =   0.0185185
        k(   80) = (  -0.5000000  -0.5000000  -0.5000000), wk =   0.0092593
        k(   81) = (   0.0000000  -0.1666667   0.1666667), wk =   0.0185185
        k(   82) = (   0.0000000  -0.1666667   0.3333333), wk =   0.0185185
        k(   83) = (   0.0000000  -0.3333333   0.1666667), wk =   0.0185185
        k(   84) = (   0.0000000  -0.3333333   0.3333333), wk =   0.0185185
        k(   85) = (  -0.1666667   0.0000000   0.1666667), wk =   0.0185185
        k(   86) = (  -0.1666667   0.0000000   0.3333333), wk =   0.0185185
        k(   87) = (  -0.1666667  -0.1666667   0.1666667), wk =   0.0185185
        k(   88) = (  -0.1666667  -0.1666667   0.3333333), wk =   0.0185185
        k(   89) = (  -0.1666667  -0.3333333   0.1666667), wk =   0.0185185
        k(   90) = (  -0.1666667  -0.3333333   0.3333333), wk =   0.0185185
        k(   91) = (  -0.1666667   0.5000000   0.1666667), wk =   0.0185185
        k(   92) = (  -0.1666667   0.5000000   0.3333333), wk =   0.0185185
        k(   93) = (  -0.1666667   0.3333333   0.1666667), wk =   0.0185185
        k(   94) = (  -0.1666667   0.3333333   0.3333333), wk =   0.0185185
        k(   95) = (  -0.1666667   0.1666667   0.1666667), wk =   0.0185185
        k(   96) = (  -0.1666667   0.1666667   0.3333333), wk =   0.0185185
        k(   97) = (  -0.3333333   0.0000000   0.1666667), wk =   0.0185185
        k(   98) = (  -0.3333333   0.0000000   0.3333333), wk =   0.0185185
        k(   99) = (  -0.3333333  -0.1666667   0.1666667), wk =   0.0185185
        k(  100) = (  -0.3333333  -0.1666667   0.3333333), wk =   0.0185185
        k(  101) = (  -0.3333333  -0.3333333   0.1666667), wk =   0.0185185
        k(  102) = (  -0.3333333  -0.3333333   0.3333333), wk =   0.0185185
        k(  103) = (  -0.3333333   0.5000000   0.1666667), wk =   0.0185185
        k(  104) = (  -0.3333333   0.5000000   0.3333333), wk =   0.0185185
        k(  105) = (  -0.3333333   0.3333333   0.1666667), wk =   0.0185185
        k(  106) = (  -0.3333333   0.3333333   0.3333333), wk =   0.0185185
        k(  107) = (  -0.3333333   0.1666667   0.1666667), wk =   0.0185185
        k(  108) = (  -0.3333333   0.1666667   0.3333333), wk =   0.0185185
        k(  109) = (   0.5000000  -0.1666667   0.1666667), wk =   0.0185185
        k(  110) = (   0.5000000  -0.1666667   0.3333333), wk =   0.0185185
        k(  111) = (   0.5000000  -0.3333333   0.1666667), wk =   0.0185185
        k(  112) = (   0.5000000  -0.3333333   0.3333333), wk =   0.0185185

     Dense  grid:   145859 G-vectors     FFT dimensions: (  75,  81,  60)

     Largest allocated arrays     est. size (Mb)     dimensions
        Kohn-Sham Wavefunctions         0.53 Mb     (    583,   60)
        NL pseudopotentials             0.18 Mb     (    583,   20)
        Each V/rho on FFT grid          0.19 Mb     (  12150)
        Each G-vector array             0.03 Mb     (   4559)
        G-vector shells                 0.02 Mb     (   2341)
     Largest temporary arrays     est. size (Mb)     dimensions
        Auxiliary wavefunctions         2.14 Mb     (    583,  240)
        Each subspace H/S matrix        0.05 Mb     (  60,  60)
        Each <psi_i|beta_j> matrix      0.02 Mb     (     20,   60)
        Arrays for rho mixing           1.48 Mb     (  12150,   8)

     Initial potential from superposition of free atoms

     starting charge   95.99902, renormalised to   96.00000
     Starting wfc are   96 randomized atomic wfcs

     total cpu time spent up to now is      202.7 secs

     Self-consistent Calculation

     iteration #  1     ecut=    60.00 Ry     beta=0.70
     Davidson diagonalization with overlap
     ethr =  1.00E-02,  avg # of iterations =  2.9

     total cpu time spent up to now is      677.9 secs

     total energy              =    -245.94531616 Ry
     Harris-Foulkes estimate   =    -248.35816124 Ry
     estimated scf accuracy    <       3.94491639 Ry

     iteration #  2     ecut=    60.00 Ry     beta=0.70
     Davidson diagonalization with overlap
     ethr =  4.11E-03,  avg # of iterations =  3.8

     total cpu time spent up to now is     1415.8 secs

     total energy              =    -246.65598283 Ry
     Harris-Foulkes estimate   =    -247.12586996 Ry
     estimated scf accuracy    <       0.77848129 Ry

     iteration #  3     ecut=    60.00 Ry     beta=0.70
     Davidson diagonalization with overlap
     ethr =  8.11E-04,  avg # of iterations =  3.0

     total cpu time spent up to now is     2114.9 secs

     total energy              =    -246.84001450 Ry
     Harris-Foulkes estimate   =    -246.90416748 Ry
     estimated scf accuracy    <       0.10980728 Ry

     iteration #  4     ecut=    60.00 Ry     beta=0.70
     Davidson diagonalization with overlap
     ethr =  1.14E-04,  avg # of iterations =  3.7

     total cpu time spent up to now is     2868.7 secs

     total energy              =    -246.86437611 Ry
     Harris-Foulkes estimate   =    -246.88847806 Ry
     estimated scf accuracy    <       0.05470005 Ry

     iteration #  5     ecut=    60.00 Ry     beta=0.70
     Davidson diagonalization with overlap
     ethr =  5.70E-05,  avg # of iterations =  2.2

     total cpu time spent up to now is     3379.2 secs

     total energy              =    -246.87528484 Ry
     Harris-Foulkes estimate   =    -246.87557047 Ry
     estimated scf accuracy    <       0.00076745 Ry

     iteration #  6     ecut=    60.00 Ry     beta=0.70
     Davidson diagonalization with overlap
     ethr =  7.99E-07,  avg # of iterations =  5.4

     total cpu time spent up to now is     4351.6 secs

     total energy              =    -246.87558301 Ry
     Harris-Foulkes estimate   =    -246.87566886 Ry
     estimated scf accuracy    <       0.00018991 Ry

     iteration #  7     ecut=    60.00 Ry     beta=0.70
     Davidson diagonalization with overlap
     ethr =  1.98E-07,  avg # of iterations =  3.0

     total cpu time spent up to now is     4985.5 secs

     total energy              =    -246.87562297 Ry
     Harris-Foulkes estimate   =    -246.87562425 Ry
     estimated scf accuracy    <       0.00000798 Ry

     iteration #  8     ecut=    60.00 Ry     beta=0.70
     Davidson diagonalization with overlap
     ethr =  8.31E-09,  avg # of iterations =  2.0

     total cpu time spent up to now is     5454.9 secs

     total energy              =    -246.87562468 Ry
     Harris-Foulkes estimate   =    -246.87562511 Ry
     estimated scf accuracy    <       0.00000096 Ry

     iteration #  9     ecut=    60.00 Ry     beta=0.70
     Davidson diagonalization with overlap
     ethr =  1.00E-09,  avg # of iterations =  2.0

     total cpu time spent up to now is     5939.9 secs

     total energy              =    -246.87562490 Ry
     Harris-Foulkes estimate   =    -246.87562502 Ry
     estimated scf accuracy    <       0.00000027 Ry

     iteration # 10     ecut=    60.00 Ry     beta=0.70
     Davidson diagonalization with overlap
     ethr =  2.79E-10,  avg # of iterations =  2.0

     total cpu time spent up to now is     6412.5 secs

     total energy              =    -246.87562496 Ry
     Harris-Foulkes estimate   =    -246.87562496 Ry
     estimated scf accuracy    <          9.7E-09 Ry

     iteration # 11     ecut=    60.00 Ry     beta=0.70
     Davidson diagonalization with overlap
     ethr =  1.01E-11,  avg # of iterations =  2.9

     total cpu time spent up to now is     6967.8 secs

     total energy              =    -246.87562496 Ry
     Harris-Foulkes estimate   =    -246.87562496 Ry
     estimated scf accuracy    <          3.2E-09 Ry

     iteration # 12     ecut=    60.00 Ry     beta=0.70
     Davidson diagonalization with overlap
     ethr =  3.31E-12,  avg # of iterations =  2.0

     total cpu time spent up to now is     7407.9 secs

     total energy              =    -246.87562496 Ry
     Harris-Foulkes estimate   =    -246.87562496 Ry
     estimated scf accuracy    <          4.1E-10 Ry

     iteration # 13     ecut=    60.00 Ry     beta=0.70
     Davidson diagonalization with overlap
     ethr =  4.27E-13,  avg # of iterations =  2.0

     total cpu time spent up to now is     7965.9 secs

     End of self-consistent calculation

          k = 0.0000 0.0000 0.0000 ( 18229 PWs)   bands (ev):

   -15.5590 -15.3809 -14.1067 -14.0512 -12.7962 -12.7802 -12.0888 -12.0481
   -11.3943 -11.3749  -9.0976  -9.0286  -8.7788  -8.7363  -8.5358  -8.3663
    -6.4455  -6.3439  -6.2732  -6.1157  -5.9880  -5.9160  -4.6789  -4.6374
    -4.5387  -4.5250  -3.7751  -3.7524  -3.7365  -3.7276  -3.5764  -3.4484
    -3.1738  -2.9628  -2.5842  -2.4374  -2.3065  -2.0514  -1.8757  -1.6878
    -1.4801  -1.4222  -1.1807  -0.6285  -0.0207   0.0229   0.6945   0.7208
     3.9372   4.2733   4.7745   4.9156   5.8336   6.0616   6.0883   6.9493
     7.1717   7.8086   7.9190   8.0621

     occupation numbers 
     0.0093   0.0093   0.0093   0.0093   0.0093   0.0093   0.0093   0.0093
     0.0093   0.0093   0.0093   0.0093   0.0093   0.0093   0.0093   0.0093
     0.0093   0.0093   0.0093   0.0093   0.0093   0.0093   0.0093   0.0093
     0.0093   0.0093   0.0093   0.0093   0.0093   0.0093   0.0093   0.0093
     0.0093   0.0093   0.0093   0.0093   0.0093   0.0093   0.0093   0.0093
     0.0093   0.0093   0.0093   0.0093   0.0093   0.0093   0.0093   0.0093
     0.0000   0.0000   0.0000   0.0000   0.0000   0.0000   0.0000   0.0000
     0.0000   0.0000   0.0000   0.0000

          k = 0.0000 0.0000 0.2267 ( 18224 PWs)   bands (ev):

   -15.5415 -15.3860 -14.0991 -14.0509 -12.8203 -12.8029 -12.0826 -12.0488
   -11.4091 -11.3893  -9.0924  -9.0374  -8.7787  -8.7443  -8.4733  -8.3369
    -6.4105  -6.3420  -6.2459  -6.1136  -5.9757  -5.8984  -4.6316  -4.6304
    -4.6227  -4.5058  -3.9109  -3.7729  -3.7427  -3.7239  -3.5917  -3.4542
    -3.2213  -3.0307  -2.6002  -2.4794  -2.1872  -2.0095  -1.8486  -1.6923
    -1.4557  -1.4029  -1.1679  -0.6242  -0.0159   0.0230   0.7233   0.7582
     3.9488   4.2770   4.7611   4.9079   5.7387   5.9550   6.2196   6.9998
     7.1476   7.7279   7.9836   8.0449

     occupation numbers 
     0.0185   0.0185   0.0185   0.0185   0.0185   0.0185   0.0185   0.0185
     0.0185   0.0185   0.0185   0.0185   0.0185   0.0185   0.0185   0.0185
     0.0185   0.0185   0.0185   0.0185   0.0185   0.0185   0.0185   0.0185
     0.0185   0.0185   0.0185   0.0185   0.0185   0.0185   0.0185   0.0185
     0.0185   0.0185   0.0185   0.0185   0.0185   0.0185   0.0185   0.0185
     0.0185   0.0185   0.0185   0.0185   0.0185   0.0185   0.0185   0.0185
     0.0000   0.0000   0.0000   0.0000   0.0000   0.0000   0.0000   0.0000
     0.0000   0.0000   0.0000   0.0000

          k = 0.0000 0.0000 0.4534 ( 18224 PWs)   bands (ev):

   -15.4968 -15.4057 -14.0813 -14.0532 -12.8644 -12.8503 -12.0691 -12.0516
   -11.4361 -11.4210  -9.0830  -9.0566  -8.7748  -8.7587  -8.3461  -8.2789
    -6.3410  -6.3221  -6.1931  -6.1167  -5.9433  -5.8805  -4.7337  -4.6335
    -4.5529  -4.5023  -4.0378  -3.8932  -3.7586  -3.7413  -3.5955  -3.4465
    -3.3028  -3.1970  -2.6227  -2.5544  -1.9799  -1.9337  -1.7933  -1.7078
    -1.5270  -1.4403  -0.9572  -0.6155  -0.0045   0.0188   0.7808   0.8174
     3.9950   4.2201   4.7914   4.8938   5.5660   5.7027   6.5849   7.1164
     7.1977   7.5460   7.7936   7.9659

     occupation numbers 
     0.0185   0.0185   0.0185   0.0185   0.0185   0.0185   0.0185   0.0185
     0.0185   0.0185   0.0185   0.0185   0.0185   0.0185   0.0185   0.0185
     0.0185   0.0185   0.0185   0.0185   0.0185   0.0185   0.0185   0.0185
     0.0185   0.0185   0.0185   0.0185   0.0185   0.0185   0.0185   0.0185
     0.0185   0.0185   0.0185   0.0185   0.0185   0.0185   0.0185   0.0185
     0.0185   0.0185   0.0185   0.0185   0.0185   0.0185   0.0185   0.0185
     0.0000   0.0000   0.0000   0.0000   0.0000   0.0000   0.0000   0.0000
     0.0000   0.0000   0.0000   0.0000

          k = 0.0000 0.0000-0.6802 ( 18240 PWs)   bands (ev):

   -15.4457 -15.4443 -14.0638 -14.0631 -12.8805 -12.8788 -12.0578 -12.0576
   -11.4438 -11.4430  -9.0737  -9.0722  -8.7689  -8.7677  -8.2658  -8.2650
    -6.3069  -6.3060  -6.1447  -6.1429  -5.9033  -5.9013  -4.7198  -4.7176
    -4.5164  -4.5157  -4.0036  -4.0024  -3.7575  -3.7569  -3.5010  -3.4962
    -3.3361  -3.3334  -2.6122  -2.6087  -1.8786  -1.8772  -1.7430  -1.7399
    -1.5499  -1.5484  -0.7070  -0.7048   0.0083   0.0086   0.8223   0.8243
     4.0944   4.0981   4.8592   4.8604   5.5210   5.5288   7.0521   7.0556
     7.3666   7.3725   7.5732   7.5759

     occupation numbers 
     0.0093   0.0093   0.0093   0.0093   0.0093   0.0093   0.0093   0.0093
     0.0093   0.0093   0.0093   0.0093   0.0093   0.0093   0.0093   0.0093
     0.0093   0.0093   0.0093   0.0093   0.0093   0.0093   0.0093   0.0093
     0.0093   0.0093   0.0093   0.0093   0.0093   0.0093   0.0093   0.0093
     0.0093   0.0093   0.0093   0.0093   0.0093   0.0093   0.0093   0.0093
     0.0093   0.0093   0.0093   0.0093   0.0093   0.0093   0.0093   0.0093
     0.0000   0.0000   0.0000   0.0000   0.0000   0.0000   0.0000   0.0000
     0.0000   0.0000   0.0000   0.0000

          k = 0.0000 0.1891 0.0000 ( 18220 PWs)   bands (ev):

   -15.5523 -15.3846 -14.0986 -14.0764 -12.7965 -12.7792 -12.0481 -12.0465
   -11.4000 -11.3766  -9.1492  -9.0495  -8.7644  -8.7448  -8.5122  -8.3761
    -6.4779  -6.4214  -6.2284  -6.1065  -5.8940  -5.8866  -4.6960  -4.6171
    -4.4832  -4.4821  -3.8468  -3.8287  -3.7428  -3.6774  -3.5636  -3.4406
    -3.1716  -2.9660  -2.5918  -2.5758  -2.2128  -2.0364  -1.8593  -1.7313
    -1.4889  -1.4256  -1.1747  -0.6369  -0.0455   0.0444   0.6844   0.7157
     3.9427   4.2778   4.8210   4.8506   5.8141   6.0903   6.2096   7.0796
     7.2013   7.7444   7.8875   8.0611

     occupation numbers 
     0.0185   0.0185   0.0185   0.0185   0.0185   0.0185   0.0185   0.0185
     0.0185   0.0185   0.0185   0.0185   0.0185   0.0185   0.0185   0.0185
     0.0185   0.0185   0.0185   0.0185   0.0185   0.0185   0.0185   0.0185
     0.0185   0.0185   0.0185   0.0185   0.0185   0.0185   0.0185   0.0185
     0.0185   0.0185   0.0185   0.0185   0.0185   0.0185   0.0185   0.0185
     0.0185   0.0185   0.0185   0.0185   0.0185   0.0185   0.0185   0.0185
     0.0000   0.0000   0.0000   0.0000   0.0000   0.0000   0.0000   0.0000
     0.0000   0.0000   0.0000   0.0000

          k = 0.0000 0.1891 0.2267 ( 18224 PWs)   bands (ev):

   -15.5354 -15.3889 -14.0932 -14.0736 -12.8205 -12.8021 -12.0488 -12.0434
   -11.4139 -11.3899  -9.1420  -9.0582  -8.7647  -8.7483  -8.4558  -8.3467
    -6.4476  -6.3821  -6.2119  -6.1057  -5.9118  -5.8629  -4.6523  -4.6297
    -4.5575  -4.4725  -3.9337  -3.8496  -3.7584  -3.7070  -3.5598  -3.4356
    -3.2293  -3.0276  -2.6071  -2.5804  -2.1379  -2.0049  -1.8222  -1.7390
    -1.4572  -1.4057  -1.1608  -0.6316  -0.0387   0.0376   0.7282   0.7417
     3.9540   4.2704   4.8242   4.8444   5.7363   5.9707   6.3198   7.0993
     7.1921   7.6781   7.8707   7.9988

     occupation numbers 
     0.0185   0.0185   0.0185   0.0185   0.0185   0.0185   0.0185   0.0185
     0.0185   0.0185   0.0185   0.0185   0.0185   0.0185   0.0185   0.0185
     0.0185   0.0185   0.0185   0.0185   0.0185   0.0185   0.0185   0.0185
     0.0185   0.0185   0.0185   0.0185   0.0185   0.0185   0.0185   0.0185
     0.0185   0.0185   0.0185   0.0185   0.0185   0.0185   0.0185   0.0185
     0.0185   0.0185   0.0185   0.0185   0.0185   0.0185   0.0185   0.0185
     0.0000   0.0000   0.0000   0.0000   0.0000   0.0000   0.0000   0.0000
     0.0000   0.0000   0.0000   0.0000

          k = 0.0000 0.1891 0.4534 ( 18215 PWs)   bands (ev):

   -15.4924 -15.4065 -14.0812 -14.0695 -12.8642 -12.8496 -12.0470 -12.0413
   -11.4378 -11.4198  -9.1266  -9.0813  -8.7620  -8.7534  -8.3393  -8.2871
    -6.3717  -6.3116  -6.1751  -6.1120  -5.9058  -5.8565  -4.7244  -4.6247
    -4.5675  -4.4881  -4.0544  -3.9073  -3.7708  -3.7538  -3.5338  -3.4345
    -3.3257  -3.1781  -2.6280  -2.6107  -2.0008  -1.9195  -1.7827  -1.7526
    -1.5040  -1.4356  -0.9515  -0.6193  -0.0220   0.0197   0.7896   0.8031
     3.9975   4.2080   4.8448   4.8617   5.5730   5.7057   6.6599   7.1528
     7.2436   7.5112   7.7267   7.8423

     occupation numbers 
     0.0185   0.0185   0.0185   0.0185   0.0185   0.0185   0.0185   0.0185
     0.0185   0.0185   0.0185   0.0185   0.0185   0.0185   0.0185   0.0185
     0.0185   0.0185   0.0185   0.0185   0.0185   0.0185   0.0185   0.0185
     0.0185   0.0185   0.0185   0.0185   0.0185   0.0185   0.0185   0.0185
     0.0185   0.0185   0.0185   0.0185   0.0185   0.0185   0.0185   0.0185
     0.0185   0.0185   0.0185   0.0185   0.0185   0.0185   0.0185   0.0185
     0.0000   0.0000   0.0000   0.0000   0.0000   0.0000   0.0000   0.0000
     0.0000   0.0000   0.0000   0.0000

          k = 0.0000 0.1891-0.6802 ( 18234 PWs)   bands (ev):

   -15.4438 -15.4423 -14.0717 -14.0711 -12.8801 -12.8784 -12.0437 -12.0431
   -11.4426 -11.4419  -9.1078  -9.1062  -8.7577  -8.7571  -8.2684  -8.2677
    -6.3046  -6.3030  -6.1366  -6.1358  -5.8787  -5.8776  -4.7219  -4.7198
    -4.5262  -4.5256  -4.0032  -4.0018  -3.7726  -3.7723  -3.4546  -3.4516
    -3.3400  -3.3361  -2.6347  -2.6313  -1.9084  -1.9066  -1.7520  -1.7492
    -1.5264  -1.5247  -0.7050  -0.7029  -0.0020  -0.0010   0.8209   0.8229
     4.0909   4.0943   4.8723   4.8738   5.5256   5.5331   7.0778   7.0813
     7.3832   7.3878   7.5417   7.5455

     occupation numbers 
     0.0185   0.0185   0.0185   0.0185   0.0185   0.0185   0.0185   0.0185
     0.0185   0.0185   0.0185   0.0185   0.0185   0.0185   0.0185   0.0185
     0.0185   0.0185   0.0185   0.0185   0.0185   0.0185   0.0185   0.0185
     0.0185   0.0185   0.0185   0.0185   0.0185   0.0185   0.0185   0.0185
     0.0185   0.0185   0.0185   0.0185   0.0185   0.0185   0.0185   0.0185
     0.0185   0.0185   0.0185   0.0185   0.0185   0.0185   0.0185   0.0185
     0.0000   0.0000   0.0000   0.0000   0.0000   0.0000   0.0000   0.0000
     0.0000   0.0000   0.0000   0.0000

          k = 0.0000 0.3781 0.0000 ( 18227 PWs)   bands (ev):

   -15.5387 -15.3917 -14.1255 -14.0825 -12.7956 -12.7767 -12.0452 -11.9710
   -11.4079 -11.3790  -9.2363  -9.1015  -8.7602  -8.7242  -8.4857  -8.4027
    -6.5911  -6.3625  -6.2102  -6.1488  -5.8289  -5.7179  -4.7142  -4.5342
    -4.4802  -4.3948  -3.9135  -3.9114  -3.7611  -3.6776  -3.5779  -3.3860
    -3.1667  -2.9717  -2.6846  -2.5922  -2.2532  -2.0170  -1.8398  -1.7773
    -1.5010  -1.4161  -1.1581  -0.6518  -0.1013   0.0849   0.6111   0.7575
     3.9544   4.2765   4.6556   5.0392   5.8222   6.1280   6.4422   7.2347
     7.3188   7.6469   7.7112   8.0502

     occupation numbers 
     0.0185   0.0185   0.0185   0.0185   0.0185   0.0185   0.0185   0.0185
     0.0185   0.0185   0.0185   0.0185   0.0185   0.0185   0.0185   0.0185
     0.0185   0.0185   0.0185   0.0185   0.0185   0.0185   0.0185   0.0185
     0.0185   0.0185   0.0185   0.0185   0.0185   0.0185   0.0185   0.0185
     0.0185   0.0185   0.0185   0.0185   0.0185   0.0185   0.0185   0.0185
     0.0185   0.0185   0.0185   0.0185   0.0185   0.0185   0.0185   0.0185
     0.0000   0.0000   0.0000   0.0000   0.0000   0.0000   0.0000   0.0000
     0.0000   0.0000   0.0000   0.0000

          k = 0.0000 0.3781 0.2267 ( 18222 PWs)   bands (ev):

   -15.5229 -15.3946 -14.1181 -14.0812 -12.8201 -12.8002 -12.0402 -11.9757
   -11.4206 -11.3927  -9.2253  -9.1084  -8.7587  -8.7303  -8.4328  -8.3679
    -6.5420  -6.3395  -6.1976  -6.1477  -5.8226  -5.7244  -4.6769  -4.5799
    -4.4805  -4.4467  -3.9826  -3.8967  -3.8023  -3.7704  -3.4951  -3.3802
    -3.2492  -3.0234  -2.7030  -2.5952  -2.1746  -1.9683  -1.8352  -1.7666
    -1.4622  -1.4009  -1.1450  -0.6459  -0.0870   0.0688   0.6676   0.7758
     3.9654   4.2563   4.6911   5.0127   5.7503   5.9875   6.5331   7.2097
     7.3339   7.5523   7.7013   7.8649

     occupation numbers 
     0.0185   0.0185   0.0185   0.0185   0.0185   0.0185   0.0185   0.0185
     0.0185   0.0185   0.0185   0.0185   0.0185   0.0185   0.0185   0.0185
     0.0185   0.0185   0.0185   0.0185   0.0185   0.0185   0.0185   0.0185
     0.0185   0.0185   0.0185   0.0185   0.0185   0.0185   0.0185   0.0185
     0.0185   0.0185   0.0185   0.0185   0.0185   0.0185   0.0185   0.0185
     0.0185   0.0185   0.0185   0.0185   0.0185   0.0185   0.0185   0.0185
     0.0000   0.0000   0.0000   0.0000   0.0000   0.0000   0.0000   0.0000
     0.0000   0.0000   0.0000   0.0000

          k = 0.0000 0.3781 0.4534 ( 18222 PWs)   bands (ev):

   -15.4833 -15.4081 -14.1016 -14.0806 -12.8648 -12.8495 -12.0271 -11.9895
   -11.4421 -11.4230  -9.1988  -9.1311  -8.7544  -8.7412  -8.3240  -8.2959
    -6.4267  -6.3019  -6.1743  -6.1500  -5.8004  -5.7404  -4.7008  -4.6404
    -4.5077  -4.4894  -4.0856  -3.9173  -3.8624  -3.8236  -3.4412  -3.3736
    -3.3457  -3.1373  -2.7116  -2.6225  -2.0416  -1.8866  -1.8459  -1.7486
    -1.4963  -1.4277  -0.9409  -0.6298  -0.0525   0.0304   0.7686   0.8067
     4.0028   4.1880   4.7896   4.9638   5.5902   5.7048   6.8309   7.2078
     7.3380   7.4114   7.5419   7.7460

     occupation numbers 
     0.0185   0.0185   0.0185   0.0185   0.0185   0.0185   0.0185   0.0185
     0.0185   0.0185   0.0185   0.0185   0.0185   0.0185   0.0185   0.0185
     0.0185   0.0185   0.0185   0.0185   0.0185   0.0185   0.0185   0.0185
     0.0185   0.0185   0.0185   0.0185   0.0185   0.0185   0.0185   0.0185
     0.0185   0.0185   0.0185   0.0185   0.0185   0.0185   0.0185   0.0185
     0.0185   0.0185   0.0185   0.0185   0.0185   0.0185   0.0185   0.0185
     0.0000   0.0000   0.0000   0.0000   0.0000   0.0000   0.0000   0.0000
     0.0000   0.0000   0.0000   0.0000

          k = 0.0000 0.3781-0.6802 ( 18228 PWs)   bands (ev):

   -15.4397 -15.4385 -14.0871 -14.0866 -12.8810 -12.8793 -12.0094 -12.0083
   -11.4455 -11.4450  -9.1658  -9.1644  -8.7491  -8.7482  -8.2634  -8.2630
    -6.3243  -6.3224  -6.1605  -6.1577  -5.7673  -5.7661  -4.7164  -4.7147
    -4.5138  -4.5125  -4.0346  -4.0329  -3.8424  -3.8411  -3.4246  -3.4217
    -3.2661  -3.2629  -2.6761  -2.6738  -1.9409  -1.9383  -1.7684  -1.7669
    -1.5098  -1.5076  -0.7046  -0.7027  -0.0125  -0.0105   0.8142   0.8163
     4.0838   4.0867   4.8951   4.8978   5.5333   5.5406   7.1373   7.1409
     7.3797   7.3864   7.4966   7.4983

     occupation numbers 
     0.0185   0.0185   0.0185   0.0185   0.0185   0.0185   0.0185   0.0185
     0.0185   0.0185   0.0185   0.0185   0.0185   0.0185   0.0185   0.0185
     0.0185   0.0185   0.0185   0.0185   0.0185   0.0185   0.0185   0.0185
     0.0185   0.0185   0.0185   0.0185   0.0185   0.0185   0.0185   0.0185
     0.0185   0.0185   0.0185   0.0185   0.0185   0.0185   0.0185   0.0185
     0.0185   0.0185   0.0185   0.0185   0.0185   0.0185   0.0185   0.0185
     0.0000   0.0000   0.0000   0.0000   0.0000   0.0000   0.0000   0.0000
     0.0000   0.0000   0.0000   0.0000

          k = 0.0000-0.5672 0.0000 ( 18234 PWs)   bands (ev):

   -15.5317 -15.3953 -14.1494 -14.0747 -12.7946 -12.7750 -12.0454 -11.9349
   -11.4094 -11.3796  -9.2744  -9.1309  -8.7673  -8.6999  -8.4796  -8.4190
    -6.6217  -6.3310  -6.2631  -6.1144  -5.7758  -5.6604  -4.7320  -4.5241
    -4.4459  -4.3935  -3.9296  -3.8662  -3.7889  -3.7172  -3.6047  -3.3466
    -3.1631  -2.9732  -2.7139  -2.5794  -2.3065  -2.0246  -1.8945  -1.7380
    -1.4991  -1.4059  -1.1484  -0.6578  -0.1323   0.1042   0.5740   0.7785
     3.9604   4.2736   4.5821   5.1544   5.8364   6.1336   6.5819   7.2047
     7.4301   7.5611   7.6650   8.0218

     occupation numbers 
     0.0093   0.0093   0.0093   0.0093   0.0093   0.0093   0.0093   0.0093
     0.0093   0.0093   0.0093   0.0093   0.0093   0.0093   0.0093   0.0093
     0.0093   0.0093   0.0093   0.0093   0.0093   0.0093   0.0093   0.0093
     0.0093   0.0093   0.0093   0.0093   0.0093   0.0093   0.0093   0.0093
     0.0093   0.0093   0.0093   0.0093   0.0093   0.0093   0.0093   0.0093
     0.0093   0.0093   0.0093   0.0093   0.0093   0.0093   0.0093   0.0093
     0.0000   0.0000   0.0000   0.0000   0.0000   0.0000   0.0000   0.0000
     0.0000   0.0000   0.0000   0.0000

          k = 0.0000-0.5672 0.2267 ( 18224 PWs)   bands (ev):

   -15.5164 -15.3975 -14.1400 -14.0752 -12.8196 -12.7992 -12.0373 -11.9416
   -11.4225 -11.3945  -9.2618  -9.1363  -8.7656  -8.7099  -8.4251  -8.3795
    -6.5705  -6.3225  -6.2416  -6.1230  -5.7675  -5.6620  -4.6923  -4.5589
    -4.4831  -4.4081  -3.9625  -3.9095  -3.8760  -3.7989  -3.4552  -3.3563
    -3.2607  -3.0212  -2.7320  -2.5981  -2.2011  -1.9671  -1.8819  -1.7440
    -1.4596  -1.3957  -1.1366  -0.6526  -0.1124   0.0854   0.6361   0.7923
     3.9716   4.2511   4.6242   5.1159   5.7634   5.9853   6.6655   7.2084
     7.4169   7.4415   7.7176   7.7531

     occupation numbers 
     0.0185   0.0185   0.0185   0.0185   0.0185   0.0185   0.0185   0.0185
     0.0185   0.0185   0.0185   0.0185   0.0185   0.0185   0.0185   0.0185
     0.0185   0.0185   0.0185   0.0185   0.0185   0.0185   0.0185   0.0185
     0.0185   0.0185   0.0185   0.0185   0.0185   0.0185   0.0185   0.0185
     0.0185   0.0185   0.0185   0.0185   0.0185   0.0185   0.0185   0.0185
     0.0185   0.0185   0.0185   0.0185   0.0185   0.0185   0.0185   0.0185
     0.0000   0.0000   0.0000   0.0000   0.0000   0.0000   0.0000   0.0000
     0.0000   0.0000   0.0000   0.0000

          k = 0.0000-0.5672 0.4534 ( 18240 PWs)   bands (ev):

   -15.4787 -15.4090 -14.1177 -14.0801 -12.8655 -12.8500 -12.0162 -11.9610
   -11.4453 -11.4271  -9.2303  -9.1561  -8.7598  -8.7309  -8.3147  -8.2978
    -6.4499  -6.3061  -6.2085  -6.1484  -5.7381  -5.6682  -4.6848  -4.6528
    -4.4717  -4.4588  -4.0549  -4.0420  -3.9264  -3.8322  -3.3868  -3.3821
    -3.3112  -3.1112  -2.7373  -2.6453  -2.0239  -1.9015  -1.8615  -1.7677
    -1.4961  -1.4231  -0.9363  -0.6363  -0.0652   0.0402   0.7502   0.8128
     4.0053   4.1807   4.7510   5.0288   5.6008   5.6982   6.9533   7.2360
     7.3035   7.3785   7.4525   7.7385

     occupation numbers 
     0.0185   0.0185   0.0185   0.0185   0.0185   0.0185   0.0185   0.0185
     0.0185   0.0185   0.0185   0.0185   0.0185   0.0185   0.0185   0.0185
     0.0185   0.0185   0.0185   0.0185   0.0185   0.0185   0.0185   0.0185
     0.0185   0.0185   0.0185   0.0185   0.0185   0.0185   0.0185   0.0185
     0.0185   0.0185   0.0185   0.0185   0.0185   0.0185   0.0185   0.0185
     0.0185   0.0185   0.0185   0.0185   0.0185   0.0185   0.0185   0.0185
     0.0000   0.0000   0.0000   0.0000   0.0000   0.0000   0.0000   0.0000
     0.0000   0.0000   0.0000   0.0000

          k = 0.0000-0.5672-0.6802 ( 18252 PWs)   bands (ev):

   -15.4378 -15.4366 -14.0948 -14.0942 -12.8822 -12.8806 -11.9890 -11.9878
   -11.4501 -11.4496  -9.1914  -9.1903  -8.7493  -8.7480  -8.2569  -8.2566
    -6.3395  -6.3376  -6.1837  -6.1796  -5.6949  -5.6940  -4.7083  -4.7066
    -4.4776  -4.4759  -4.0845  -4.0832  -3.8976  -3.8952  -3.4149  -3.4102
    -3.2067  -3.2039  -2.7029  -2.7012  -1.9005  -1.8979  -1.8303  -1.8277
    -1.5023  -1.5005  -0.7062  -0.7044  -0.0126  -0.0103   0.8087   0.8109
     4.0802   4.0828   4.9045   4.9079   5.5358   5.5431   7.2097   7.2111
     7.2868   7.2956   7.5255   7.5289

     occupation numbers 
     0.0093   0.0093   0.0093   0.0093   0.0093   0.0093   0.0093   0.0093
     0.0093   0.0093   0.0093   0.0093   0.0093   0.0093   0.0093   0.0093
     0.0093   0.0093   0.0093   0.0093   0.0093   0.0093   0.0093   0.0093
     0.0093   0.0093   0.0093   0.0093   0.0093   0.0093   0.0093   0.0093
     0.0093   0.0093   0.0093   0.0093   0.0093   0.0093   0.0093   0.0093
     0.0093   0.0093   0.0093   0.0093   0.0093   0.0093   0.0093   0.0093
     0.0000   0.0000   0.0000   0.0000   0.0000   0.0000   0.0000   0.0000
     0.0000   0.0000   0.0000   0.0000

          k = 0.1667 0.1141 0.0000 ( 18223 PWs)   bands (ev):

   -15.5477 -15.3935 -14.1032 -14.0554 -12.7947 -12.7809 -12.0834 -12.0484
   -11.3948 -11.3780  -9.0933  -9.0333  -8.7763  -8.7395  -8.5253  -8.3792
    -6.4561  -6.3721  -6.2480  -6.1027  -5.9818  -5.9185  -4.6851  -4.6346
    -4.5150  -4.4746  -3.8339  -3.8080  -3.7297  -3.6945  -3.5743  -3.4201
    -3.1837  -3.0091  -2.5978  -2.4551  -2.2494  -1.9933  -1.8578  -1.6895
    -1.4878  -1.4802  -1.1726  -0.6845  -0.0083   0.0283   0.6956   0.7122
     3.9650   4.2646   4.7824   4.9119   5.8153   6.0573   6.2317   7.0013
     7.1421   7.7433   7.9604   8.0345

     occupation numbers 
     0.0185   0.0185   0.0185   0.0185   0.0185   0.0185   0.0185   0.0185
     0.0185   0.0185   0.0185   0.0185   0.0185   0.0185   0.0185   0.0185
     0.0185   0.0185   0.0185   0.0185   0.0185   0.0185   0.0185   0.0185
     0.0185   0.0185   0.0185   0.0185   0.0185   0.0185   0.0185   0.0185
     0.0185   0.0185   0.0185   0.0185   0.0185   0.0185   0.0185   0.0185
     0.0185   0.0185   0.0185   0.0185   0.0185   0.0185   0.0185   0.0185
     0.0000   0.0000   0.0000   0.0000   0.0000   0.0000   0.0000   0.0000
     0.0000   0.0000   0.0000   0.0000

          k = 0.1667 0.1141 0.2267 ( 18218 PWs)   bands (ev):

   -15.5314 -15.3969 -14.0962 -14.0546 -12.8193 -12.8039 -12.0794 -12.0494
   -11.4093 -11.3899  -9.0891  -9.0409  -8.7759  -8.7461  -8.4650  -8.3473
    -6.4204  -6.3547  -6.2292  -6.1087  -5.9747  -5.8984  -4.6528  -4.6285
    -4.5962  -4.4685  -3.9450  -3.7678  -3.7393  -3.7192  -3.6093  -3.4309
    -3.2345  -3.0570  -2.6045  -2.4839  -2.1807  -1.9477  -1.8362  -1.6974
    -1.5167  -1.4095  -1.1415  -0.6739  -0.0117   0.0221   0.7250   0.7648
     3.9718   4.2607   4.7770   4.9099   5.7322   5.9451   6.3338   7.0455
     7.1250   7.6850   7.8972   8.0800

     occupation numbers 
     0.0185   0.0185   0.0185   0.0185   0.0185   0.0185   0.0185   0.0185
     0.0185   0.0185   0.0185   0.0185   0.0185   0.0185   0.0185   0.0185
     0.0185   0.0185   0.0185   0.0185   0.0185   0.0185   0.0185   0.0185
     0.0185   0.0185   0.0185   0.0185   0.0185   0.0185   0.0185   0.0185
     0.0185   0.0185   0.0185   0.0185   0.0185   0.0185   0.0185   0.0185
     0.0185   0.0185   0.0185   0.0185   0.0185   0.0185   0.0185   0.0185
     0.0000   0.0000   0.0000   0.0000   0.0000   0.0000   0.0000   0.0000
     0.0000   0.0000   0.0000   0.0000

          k = 0.1667 0.1141 0.4534 ( 18225 PWs)   bands (ev):

   -15.4905 -15.4117 -14.0798 -14.0555 -12.8645 -12.8518 -12.0701 -12.0531
   -11.4341 -11.4181  -9.0814  -9.0579  -8.7719  -8.7582  -8.3415  -8.2835
    -6.3481  -6.3145  -6.1874  -6.1203  -5.9500  -5.8828  -4.7358  -4.6469
    -4.5585  -4.4964  -4.0271  -3.8624  -3.7641  -3.7511  -3.5900  -3.4504
    -3.3119  -3.1723  -2.6138  -2.5491  -2.0825  -1.8814  -1.7908  -1.7173
    -1.5610  -1.3964  -0.9404  -0.6454  -0.0157   0.0065   0.7967   0.8407
     4.0044   4.1992   4.8154   4.9062   5.5638   5.6924   6.6451   7.1582
     7.1928   7.5262   7.6980   7.9366

     occupation numbers 
     0.0185   0.0185   0.0185   0.0185   0.0185   0.0185   0.0185   0.0185
     0.0185   0.0185   0.0185   0.0185   0.0185   0.0185   0.0185   0.0185
     0.0185   0.0185   0.0185   0.0185   0.0185   0.0185   0.0185   0.0185
     0.0185   0.0185   0.0185   0.0185   0.0185   0.0185   0.0185   0.0185
     0.0185   0.0185   0.0185   0.0185   0.0185   0.0185   0.0185   0.0185
     0.0185   0.0185   0.0185   0.0185   0.0185   0.0185   0.0185   0.0185
     0.0000   0.0000   0.0000   0.0000   0.0000   0.0000   0.0000   0.0000
     0.0000   0.0000   0.0000   0.0000

          k = 0.1667 0.1141-0.6802 ( 18240 PWs)   bands (ev):

   -15.4452 -15.4439 -14.0642 -14.0636 -12.8818 -12.8801 -12.0607 -12.0600
   -11.4398 -11.4390  -9.0736  -9.0721  -8.7666  -8.7654  -8.2651  -8.2643
    -6.3018  -6.3012  -6.1465  -6.1442  -5.9111  -5.9093  -4.7332  -4.7314
    -4.5207  -4.5200  -3.9763  -3.9752  -3.7723  -3.7716  -3.5095  -3.5048
    -3.2976  -3.2943  -2.6026  -2.5992  -1.9656  -1.9636  -1.7488  -1.7456
    -1.4929  -1.4911  -0.7111  -0.7090  -0.0109  -0.0094   0.8502   0.8521
     4.0861   4.0895   4.8804   4.8822   5.5148   5.5221   7.0745   7.0786
     7.3695   7.3747   7.5411   7.5446

     occupation numbers 
     0.0185   0.0185   0.0185   0.0185   0.0185   0.0185   0.0185   0.0185
     0.0185   0.0185   0.0185   0.0185   0.0185   0.0185   0.0185   0.0185
     0.0185   0.0185   0.0185   0.0185   0.0185   0.0185   0.0185   0.0185
     0.0185   0.0185   0.0185   0.0185   0.0185   0.0185   0.0185   0.0185
     0.0185   0.0185   0.0185   0.0185   0.0185   0.0185   0.0185   0.0185
     0.0185   0.0185   0.0185   0.0185   0.0185   0.0185   0.0185   0.0185
     0.0000   0.0000   0.0000   0.0000   0.0000   0.0000   0.0000   0.0000
     0.0000   0.0000   0.0000   0.0000

          k = 0.1667 0.3032 0.0000 ( 18230 PWs)   bands (ev):

   -15.5368 -15.4010 -14.0940 -14.0838 -12.7950 -12.7792 -12.0599 -12.0270
   -11.4016 -11.3792  -9.1507  -9.0471  -8.7573  -8.7528  -8.4947  -8.3997
    -6.5358  -6.3888  -6.1803  -6.1454  -5.9208  -5.8465  -4.7091  -4.5984
    -4.4460  -4.4312  -3.8795  -3.8574  -3.6963  -3.6910  -3.6168  -3.3963
    -3.1785  -3.0269  -2.5811  -2.5711  -2.2131  -1.9776  -1.8103  -1.7566
    -1.5027  -1.5009  -1.1601  -0.6953  -0.0446   0.0643   0.6450   0.7274
     3.9680   4.2662   4.7591   4.9333   5.8225   6.1088   6.4224   7.1598
     7.2255   7.5875   7.7869   8.1123

     occupation numbers 
     0.0185   0.0185   0.0185   0.0185   0.0185   0.0185   0.0185   0.0185
     0.0185   0.0185   0.0185   0.0185   0.0185   0.0185   0.0185   0.0185
     0.0185   0.0185   0.0185   0.0185   0.0185   0.0185   0.0185   0.0185
     0.0185   0.0185   0.0185   0.0185   0.0185   0.0185   0.0185   0.0185
     0.0185   0.0185   0.0185   0.0185   0.0185   0.0185   0.0185   0.0185
     0.0185   0.0185   0.0185   0.0185   0.0185   0.0185   0.0185   0.0185
     0.0000   0.0000   0.0000   0.0000   0.0000   0.0000   0.0000   0.0000
     0.0000   0.0000   0.0000   0.0000

          k = 0.1667 0.3032 0.2267 ( 18222 PWs)   bands (ev):

   -15.5216 -15.4030 -14.0890 -14.0803 -12.8198 -12.8026 -12.0586 -12.0295
   -11.4139 -11.3905  -9.1432  -9.0546  -8.7581  -8.7544  -8.4412  -8.3657
    -6.4932  -6.3542  -6.1717  -6.1378  -5.9205  -5.8497  -4.6788  -4.6083
    -4.5121  -4.4565  -3.9583  -3.8500  -3.7353  -3.7103  -3.6001  -3.3898
    -3.2573  -3.0517  -2.6065  -2.5762  -2.1331  -1.9672  -1.7932  -1.7461
    -1.5215  -1.4288  -1.1304  -0.6840  -0.0443   0.0452   0.6992   0.7660
     3.9764   4.2518   4.7786   4.9198   5.7451   5.9708   6.5110   7.1414
     7.2406   7.5574   7.7480   7.9896

     occupation numbers 
     0.0185   0.0185   0.0185   0.0185   0.0185   0.0185   0.0185   0.0185
     0.0185   0.0185   0.0185   0.0185   0.0185   0.0185   0.0185   0.0185
     0.0185   0.0185   0.0185   0.0185   0.0185   0.0185   0.0185   0.0185
     0.0185   0.0185   0.0185   0.0185   0.0185   0.0185   0.0185   0.0185
     0.0185   0.0185   0.0185   0.0185   0.0185   0.0185   0.0185   0.0185
     0.0185   0.0185   0.0185   0.0185   0.0185   0.0185   0.0185   0.0185
     0.0000   0.0000   0.0000   0.0000   0.0000   0.0000   0.0000   0.0000
     0.0000   0.0000   0.0000   0.0000

          k = 0.1667 0.3032 0.4534 ( 18226 PWs)   bands (ev):

   -15.4838 -15.4143 -14.0785 -14.0737 -12.8653 -12.8515 -12.0547 -12.0372
   -11.4342 -11.4167  -9.1264  -9.0766  -8.7577  -8.7560  -8.3309  -8.2955
    -6.3919  -6.2906  -6.1543  -6.1268  -5.9123  -5.8645  -4.7235  -4.6397
    -4.5614  -4.5039  -4.0471  -3.8818  -3.7862  -3.7383  -3.5631  -3.4342
    -3.3112  -3.1390  -2.6385  -2.5934  -2.0343  -1.9198  -1.8024  -1.7385
    -1.5437  -1.4056  -0.9312  -0.6517  -0.0397   0.0065   0.7956   0.8359
     4.0089   4.1881   4.8363   4.9105   5.5802   5.6927   6.7964   7.1727
     7.2740   7.4549   7.6064   7.7306

     occupation numbers 
     0.0185   0.0185   0.0185   0.0185   0.0185   0.0185   0.0185   0.0185
     0.0185   0.0185   0.0185   0.0185   0.0185   0.0185   0.0185   0.0185
     0.0185   0.0185   0.0185   0.0185   0.0185   0.0185   0.0185   0.0185
     0.0185   0.0185   0.0185   0.0185   0.0185   0.0185   0.0185   0.0185
     0.0185   0.0185   0.0185   0.0185   0.0185   0.0185   0.0185   0.0185
     0.0185   0.0185   0.0185   0.0185   0.0185   0.0185   0.0185   0.0185
     0.0000   0.0000   0.0000   0.0000   0.0000   0.0000   0.0000   0.0000
     0.0000   0.0000   0.0000   0.0000

          k = 0.1667 0.3032-0.6802 ( 18216 PWs)   bands (ev):

   -15.4429 -15.4417 -14.0720 -14.0717 -12.8822 -12.8806 -12.0478 -12.0467
   -11.4371 -11.4365  -9.1048  -9.1032  -8.7565  -8.7558  -8.2667  -8.2662
    -6.2996  -6.2978  -6.1330  -6.1321  -5.8907  -5.8898  -4.7378  -4.7363
    -4.5361  -4.5352  -3.9915  -3.9897  -3.7670  -3.7665  -3.5088  -3.5057
    -3.2536  -3.2500  -2.6273  -2.6244  -1.9541  -1.9514  -1.7814  -1.7790
    -1.4858  -1.4833  -0.7084  -0.7065  -0.0259  -0.0238   0.8513   0.8532
     4.0854   4.0883   4.8940   4.8968   5.5205   5.5276   7.1537   7.1588
     7.3397   7.3453   7.4806   7.4826

     occupation numbers 
     0.0185   0.0185   0.0185   0.0185   0.0185   0.0185   0.0185   0.0185
     0.0185   0.0185   0.0185   0.0185   0.0185   0.0185   0.0185   0.0185
     0.0185   0.0185   0.0185   0.0185   0.0185   0.0185   0.0185   0.0185
     0.0185   0.0185   0.0185   0.0185   0.0185   0.0185   0.0185   0.0185
     0.0185   0.0185   0.0185   0.0185   0.0185   0.0185   0.0185   0.0185
     0.0185   0.0185   0.0185   0.0185   0.0185   0.0185   0.0185   0.0185
     0.0000   0.0000   0.0000   0.0000   0.0000   0.0000   0.0000   0.0000
     0.0000   0.0000   0.0000   0.0000

          k = 0.1667 0.4922 0.0000 ( 18233 PWs)   bands (ev):

   -15.5246 -15.4069 -14.1373 -14.0711 -12.7937 -12.7765 -12.0561 -11.9589
   -11.4069 -11.3811  -9.2315  -9.1034  -8.7691  -8.7145  -8.4764  -8.4242
    -6.6058  -6.3245  -6.2388  -6.1121  -5.8524  -5.7132  -4.7129  -4.5100
    -4.4948  -4.3980  -3.8807  -3.8723  -3.7760  -3.7329  -3.5832  -3.3517
    -3.1754  -3.0372  -2.6826  -2.5780  -2.2444  -1.9462  -1.8762  -1.7475
    -1.4983  -1.4771  -1.1413  -0.7095  -0.0953   0.0953   0.5903   0.7702
     3.9809   4.2619   4.6195   5.1112   5.8601   6.1143   6.5742   7.1439
     7.4079   7.5023   7.6445   8.1361

     occupation numbers 
     0.0185   0.0185   0.0185   0.0185   0.0185   0.0185   0.0185   0.0185
     0.0185   0.0185   0.0185   0.0185   0.0185   0.0185   0.0185   0.0185
     0.0185   0.0185   0.0185   0.0185   0.0185   0.0185   0.0185   0.0185
     0.0185   0.0185   0.0185   0.0185   0.0185   0.0185   0.0185   0.0185
     0.0185   0.0185   0.0185   0.0185   0.0185   0.0185   0.0185   0.0185
     0.0185   0.0185   0.0185   0.0185   0.0185   0.0185   0.0185   0.0185
     0.0000   0.0000   0.0000   0.0000   0.0000   0.0000   0.0000   0.0000
     0.0000   0.0000   0.0000   0.0000

          k = 0.1667 0.4922 0.2267 ( 18230 PWs)   bands (ev):

   -15.5104 -15.4077 -14.1286 -14.0712 -12.8190 -12.8008 -12.0495 -11.9655
   -11.4191 -11.3943  -9.2209  -9.1085  -8.7682  -8.7227  -8.4237  -8.3836
    -6.5573  -6.3108  -6.2210  -6.1176  -5.8431  -5.7181  -4.6843  -4.5524
    -4.4959  -4.4436  -3.9506  -3.9058  -3.8389  -3.7405  -3.5131  -3.3370
    -3.2817  -3.0560  -2.7000  -2.5902  -2.1636  -1.9299  -1.8530  -1.7433
    -1.5090  -1.4176  -1.1148  -0.6979  -0.0853   0.0715   0.6540   0.7962
     3.9892   4.2385   4.6594   5.0813   5.7751   5.9638   6.6635   7.1448
     7.3714   7.4517   7.7211   7.8282

     occupation numbers 
     0.0185   0.0185   0.0185   0.0185   0.0185   0.0185   0.0185   0.0185
     0.0185   0.0185   0.0185   0.0185   0.0185   0.0185   0.0185   0.0185
     0.0185   0.0185   0.0185   0.0185   0.0185   0.0185   0.0185   0.0185
     0.0185   0.0185   0.0185   0.0185   0.0185   0.0185   0.0185   0.0185
     0.0185   0.0185   0.0185   0.0185   0.0185   0.0185   0.0185   0.0185
     0.0185   0.0185   0.0185   0.0185   0.0185   0.0185   0.0185   0.0185
     0.0000   0.0000   0.0000   0.0000   0.0000   0.0000   0.0000   0.0000
     0.0000   0.0000   0.0000   0.0000

          k = 0.1667 0.4922 0.4534 ( 18236 PWs)   bands (ev):

   -15.4756 -15.4154 -14.1080 -14.0749 -12.8656 -12.8515 -12.0321 -11.9840
   -11.4401 -11.4235  -9.1939  -9.1273  -8.7638  -8.7399  -8.3159  -8.2988
    -6.4423  -6.2928  -6.1882  -6.1347  -5.8112  -5.7319  -4.7040  -4.6465
    -4.4991  -4.4890  -4.0536  -3.9688  -3.8692  -3.7772  -3.4721  -3.4208
    -3.2745  -3.1233  -2.7115  -2.6261  -2.0478  -1.8940  -1.8348  -1.7854
    -1.5232  -1.3936  -0.9226  -0.6629  -0.0600   0.0207   0.7718   0.8398
     4.0144   4.1698   4.7747   5.0149   5.6012   5.6796   6.9365   7.1788
     7.2969   7.4052   7.5174   7.7295

     occupation numbers 
     0.0185   0.0185   0.0185   0.0185   0.0185   0.0185   0.0185   0.0185
     0.0185   0.0185   0.0185   0.0185   0.0185   0.0185   0.0185   0.0185
     0.0185   0.0185   0.0185   0.0185   0.0185   0.0185   0.0185   0.0185
     0.0185   0.0185   0.0185   0.0185   0.0185   0.0185   0.0185   0.0185
     0.0185   0.0185   0.0185   0.0185   0.0185   0.0185   0.0185   0.0185
     0.0185   0.0185   0.0185   0.0185   0.0185   0.0185   0.0185   0.0185
     0.0000   0.0000   0.0000   0.0000   0.0000   0.0000   0.0000   0.0000
     0.0000   0.0000   0.0000   0.0000

          k = 0.1667 0.4922-0.6802 ( 18224 PWs)   bands (ev):

   -15.4392 -15.4381 -14.0875 -14.0870 -12.8830 -12.8815 -12.0093 -12.0081
   -11.4443 -11.4439  -9.1599  -9.1588  -8.7549  -8.7540  -8.2577  -8.2574
    -6.3338  -6.3318  -6.1611  -6.1580  -5.7646  -5.7635  -4.7270  -4.7257
    -4.5009  -4.4995  -4.0368  -4.0355  -3.8352  -3.8334  -3.4680  -3.4655
    -3.2048  -3.2025  -2.6789  -2.6770  -1.9344  -1.9333  -1.8397  -1.8366
    -1.4676  -1.4653  -0.7102  -0.7085  -0.0267  -0.0243   0.8403   0.8423
     4.0775   4.0801   4.9120   4.9154   5.5261   5.5327   7.1889   7.1901
     7.3048   7.3117   7.5206   7.5231

     occupation numbers 
     0.0185   0.0185   0.0185   0.0185   0.0185   0.0185   0.0185   0.0185
     0.0185   0.0185   0.0185   0.0185   0.0185   0.0185   0.0185   0.0185
     0.0185   0.0185   0.0185   0.0185   0.0185   0.0185   0.0185   0.0185
     0.0185   0.0185   0.0185   0.0185   0.0185   0.0185   0.0185   0.0185
     0.0185   0.0185   0.0185   0.0185   0.0185   0.0185   0.0185   0.0185
     0.0185   0.0185   0.0185   0.0185   0.0185   0.0185   0.0185   0.0185
     0.0000   0.0000   0.0000   0.0000   0.0000   0.0000   0.0000   0.0000
     0.0000   0.0000   0.0000   0.0000

          k = 0.1667-0.4531 0.0000 ( 18227 PWs)   bands (ev):

   -15.5235 -15.4056 -14.1426 -14.0775 -12.7933 -12.7764 -12.0381 -11.9425
   -11.4090 -11.3833  -9.2655  -9.1414  -8.7634  -8.7053  -8.4739  -8.4214
    -6.5996  -6.3490  -6.2518  -6.1229  -5.7628  -5.6666  -4.6982  -4.5174
    -4.4681  -4.3773  -3.9572  -3.9209  -3.8385  -3.7357  -3.4993  -3.3503
    -3.1772  -3.0216  -2.7384  -2.6103  -2.2177  -1.9375  -1.8822  -1.7433
    -1.4989  -1.4515  -1.1382  -0.7146  -0.1065   0.0932   0.6034   0.7816
     3.9877   4.2616   4.6110   5.1011   5.8751   6.0808   6.5017   7.1547
     7.4066   7.5654   7.7289   8.0233

     occupation numbers 
     0.0185   0.0185   0.0185   0.0185   0.0185   0.0185   0.0185   0.0185
     0.0185   0.0185   0.0185   0.0185   0.0185   0.0185   0.0185   0.0185
     0.0185   0.0185   0.0185   0.0185   0.0185   0.0185   0.0185   0.0185
     0.0185   0.0185   0.0185   0.0185   0.0185   0.0185   0.0185   0.0185
     0.0185   0.0185   0.0185   0.0185   0.0185   0.0185   0.0185   0.0185
     0.0185   0.0185   0.0185   0.0185   0.0185   0.0185   0.0185   0.0185
     0.0000   0.0000   0.0000   0.0000   0.0000   0.0000   0.0000   0.0000
     0.0000   0.0000   0.0000   0.0000

          k = 0.1667-0.4531 0.2267 ( 18211 PWs)   bands (ev):

   -15.5092 -15.4064 -14.1344 -14.0780 -12.8184 -12.8004 -12.0312 -11.9481
   -11.4216 -11.3971  -9.2548  -9.1465  -8.7612  -8.7137  -8.4216  -8.3816
    -6.5518  -6.3356  -6.2368  -6.1305  -5.7564  -5.6665  -4.6748  -4.5567
    -4.4847  -4.4025  -4.0266  -3.9057  -3.8837  -3.7752  -3.4444  -3.3539
    -3.2573  -3.0588  -2.7390  -2.6153  -2.1833  -1.8855  -1.8739  -1.7506
    -1.5061  -1.3937  -1.1110  -0.7021  -0.0934   0.0734   0.6621   0.8012
     3.9948   4.2291   4.6626   5.0750   5.7835   5.9437   6.5996   7.1680
     7.3863   7.4946   7.6988   7.8588

     occupation numbers 
     0.0185   0.0185   0.0185   0.0185   0.0185   0.0185   0.0185   0.0185
     0.0185   0.0185   0.0185   0.0185   0.0185   0.0185   0.0185   0.0185
     0.0185   0.0185   0.0185   0.0185   0.0185   0.0185   0.0185   0.0185
     0.0185   0.0185   0.0185   0.0185   0.0185   0.0185   0.0185   0.0185
     0.0185   0.0185   0.0185   0.0185   0.0185   0.0185   0.0185   0.0185
     0.0185   0.0185   0.0185   0.0185   0.0185   0.0185   0.0185   0.0185
     0.0000   0.0000   0.0000   0.0000   0.0000   0.0000   0.0000   0.0000
     0.0000   0.0000   0.0000   0.0000

          k = 0.1667-0.4531 0.4534 ( 18223 PWs)   bands (ev):

   -15.4743 -15.4140 -14.1150 -14.0822 -12.8645 -12.8504 -12.0127 -11.9648
   -11.4436 -11.4274  -9.2281  -9.1647  -8.7551  -8.7308  -8.3142  -8.2986
    -6.4412  -6.3144  -6.2098  -6.1537  -5.7323  -5.6702  -4.7062  -4.6495
    -4.4772  -4.4399  -4.0889  -3.9610  -3.9160  -3.8290  -3.4094  -3.3741
    -3.3117  -3.1329  -2.7315  -2.6366  -2.1340  -1.9197  -1.8041  -1.7724
    -1.5111  -1.3667  -0.9217  -0.6652  -0.0622   0.0268   0.7700   0.8340
     4.0140   4.1555   4.7877   5.0154   5.6038   5.6755   6.8684   7.2196
     7.3326   7.4058   7.5041   7.8469

     occupation numbers 
     0.0185   0.0185   0.0185   0.0185   0.0185   0.0185   0.0185   0.0185
     0.0185   0.0185   0.0185   0.0185   0.0185   0.0185   0.0185   0.0185
     0.0185   0.0185   0.0185   0.0185   0.0185   0.0185   0.0185   0.0185
     0.0185   0.0185   0.0185   0.0185   0.0185   0.0185   0.0185   0.0185
     0.0185   0.0185   0.0185   0.0185   0.0185   0.0185   0.0185   0.0185
     0.0185   0.0185   0.0185   0.0185   0.0185   0.0185   0.0185   0.0185
     0.0000   0.0000   0.0000   0.0000   0.0000   0.0000   0.0000   0.0000
     0.0000   0.0000   0.0000   0.0000

          k = 0.1667-0.4531-0.6802 ( 18234 PWs)   bands (ev):

   -15.4377 -15.4366 -14.0951 -14.0945 -12.8818 -12.8801 -11.9892 -11.9881
   -11.4487 -11.4482  -9.1956  -9.1946  -8.7460  -8.7447  -8.2575  -8.2571
    -6.3428  -6.3410  -6.1862  -6.1822  -5.6948  -5.6938  -4.7254  -4.7244
    -4.4663  -4.4648  -4.0517  -4.0506  -3.8776  -3.8755  -3.4187  -3.4145
    -3.2253  -3.2231  -2.6889  -2.6873  -2.0372  -2.0352  -1.7862  -1.7815
    -1.4438  -1.4430  -0.7107  -0.7091  -0.0227  -0.0205   0.8315   0.8336
     4.0684   4.0715   4.9199   4.9228   5.5286   5.5347   7.1135   7.1161
     7.3866   7.3914   7.5706   7.5717

     occupation numbers 
     0.0185   0.0185   0.0185   0.0185   0.0185   0.0185   0.0185   0.0185
     0.0185   0.0185   0.0185   0.0185   0.0185   0.0185   0.0185   0.0185
     0.0185   0.0185   0.0185   0.0185   0.0185   0.0185   0.0185   0.0185
     0.0185   0.0185   0.0185   0.0185   0.0185   0.0185   0.0185   0.0185
     0.0185   0.0185   0.0185   0.0185   0.0185   0.0185   0.0185   0.0185
     0.0185   0.0185   0.0185   0.0185   0.0185   0.0185   0.0185   0.0185
     0.0000   0.0000   0.0000   0.0000   0.0000   0.0000   0.0000   0.0000
     0.0000   0.0000   0.0000   0.0000

          k = 0.1667-0.2640 0.0000 ( 18199 PWs)   bands (ev):

   -15.5348 -15.3982 -14.1051 -14.0968 -12.7945 -12.7787 -12.0251 -11.9940
   -11.4068 -11.3827  -9.2229  -9.1175  -8.7463  -8.7394  -8.4869  -8.3950
    -6.5331  -6.4124  -6.1876  -6.1684  -5.7963  -5.7405  -4.6633  -4.5666
    -4.4683  -4.4205  -3.9589  -3.9369  -3.8183  -3.6965  -3.4572  -3.4130
    -3.1791  -3.0057  -2.7125  -2.6406  -2.1239  -1.9370  -1.8209  -1.7971
    -1.4960  -1.4477  -1.1528  -0.7060  -0.0637   0.0587   0.6720   0.7500
     3.9847   4.2627   4.7413   4.9167   5.8580   6.0536   6.2993   7.1854
     7.2153   7.6624   7.8737   7.9834

     occupation numbers 
     0.0185   0.0185   0.0185   0.0185   0.0185   0.0185   0.0185   0.0185
     0.0185   0.0185   0.0185   0.0185   0.0185   0.0185   0.0185   0.0185
     0.0185   0.0185   0.0185   0.0185   0.0185   0.0185   0.0185   0.0185
     0.0185   0.0185   0.0185   0.0185   0.0185   0.0185   0.0185   0.0185
     0.0185   0.0185   0.0185   0.0185   0.0185   0.0185   0.0185   0.0185
     0.0185   0.0185   0.0185   0.0185   0.0185   0.0185   0.0185   0.0185
     0.0000   0.0000   0.0000   0.0000   0.0000   0.0000   0.0000   0.0000
     0.0000   0.0000   0.0000   0.0000

          k = 0.1667-0.2640 0.2267 ( 18192 PWs)   bands (ev):

   -15.5194 -15.4002 -14.1010 -14.0938 -12.8187 -12.8017 -12.0229 -11.9947
   -11.4192 -11.3960  -9.2142  -9.1244  -8.7465  -8.7418  -8.4349  -8.3619
    -6.4939  -6.3811  -6.1848  -6.1620  -5.7943  -5.7426  -4.6467  -4.5885
    -4.4777  -4.4650  -4.0099  -3.9345  -3.8408  -3.7122  -3.4503  -3.4137
    -3.2382  -3.0636  -2.7100  -2.6216  -2.1535  -1.8625  -1.8195  -1.7983
    -1.5023  -1.3874  -1.1229  -0.6930  -0.0577   0.0471   0.7170   0.7749
     3.9891   4.2360   4.7785   4.9110   5.7624   5.9385   6.4182   7.1411
     7.2526   7.5925   7.7743   8.0283

     occupation numbers 
     0.0185   0.0185   0.0185   0.0185   0.0185   0.0185   0.0185   0.0185
     0.0185   0.0185   0.0185   0.0185   0.0185   0.0185   0.0185   0.0185
     0.0185   0.0185   0.0185   0.0185   0.0185   0.0185   0.0185   0.0185
     0.0185   0.0185   0.0185   0.0185   0.0185   0.0185   0.0185   0.0185
     0.0185   0.0185   0.0185   0.0185   0.0185   0.0185   0.0185   0.0185
     0.0185   0.0185   0.0185   0.0185   0.0185   0.0185   0.0185   0.0185
     0.0000   0.0000   0.0000   0.0000   0.0000   0.0000   0.0000   0.0000
     0.0000   0.0000   0.0000   0.0000

          k = 0.1667-0.2640 0.4534 ( 18225 PWs)   bands (ev):

   -15.4812 -15.4113 -14.0927 -14.0884 -12.8631 -12.8495 -12.0168 -11.9990
   -11.4409 -11.4249  -9.1952  -9.1453  -8.7454  -8.7444  -8.3271  -8.2933
    -6.4042  -6.3264  -6.1763  -6.1564  -5.7821  -5.7498  -4.7172  -4.6417
    -4.5093  -4.4722  -4.0575  -3.9040  -3.8449  -3.8039  -3.4348  -3.4008
    -3.3402  -3.1852  -2.6981  -2.6171  -2.1600  -1.9187  -1.7887  -1.7478
    -1.5056  -1.3577  -0.9296  -0.6566  -0.0422   0.0168   0.7933   0.8236
     4.0092   4.1627   4.8579   4.9144   5.5845   5.6845   6.7437   7.1522
     7.2964   7.4259   7.6757   7.8936

     occupation numbers 
     0.0185   0.0185   0.0185   0.0185   0.0185   0.0185   0.0185   0.0185
     0.0185   0.0185   0.0185   0.0185   0.0185   0.0185   0.0185   0.0185
     0.0185   0.0185   0.0185   0.0185   0.0185   0.0185   0.0185   0.0185
     0.0185   0.0185   0.0185   0.0185   0.0185   0.0185   0.0185   0.0185
     0.0185   0.0185   0.0185   0.0185   0.0185   0.0185   0.0185   0.0185
     0.0185   0.0185   0.0185   0.0185   0.0185   0.0185   0.0185   0.0185
     0.0000   0.0000   0.0000   0.0000   0.0000   0.0000   0.0000   0.0000
     0.0000   0.0000   0.0000   0.0000

          k = 0.1667-0.2640-0.6802 ( 18256 PWs)   bands (ev):

   -15.4400 -15.4388 -14.0875 -14.0869 -12.8798 -12.8780 -12.0082 -12.0074
   -11.4457 -11.4451  -9.1727  -9.1713  -8.7449  -8.7442  -8.2647  -8.2642
    -6.3294  -6.3277  -6.1653  -6.1627  -5.7637  -5.7626  -4.7327  -4.7315
    -4.4973  -4.4962  -3.9665  -3.9657  -3.8449  -3.8441  -3.4024  -3.3993
    -3.3277  -3.3253  -2.6625  -2.6600  -2.0627  -2.0613  -1.7560  -1.7529
    -1.4345  -1.4338  -0.7096  -0.7078  -0.0175  -0.0162   0.8342   0.8363
     4.0692   4.0728   4.9106   4.9120   5.5235   5.5297   7.0907   7.0934
     7.3483   7.3521   7.6151   7.6175

     occupation numbers 
     0.0185   0.0185   0.0185   0.0185   0.0185   0.0185   0.0185   0.0185
     0.0185   0.0185   0.0185   0.0185   0.0185   0.0185   0.0185   0.0185
     0.0185   0.0185   0.0185   0.0185   0.0185   0.0185   0.0185   0.0185
     0.0185   0.0185   0.0185   0.0185   0.0185   0.0185   0.0185   0.0185
     0.0185   0.0185   0.0185   0.0185   0.0185   0.0185   0.0185   0.0185
     0.0185   0.0185   0.0185   0.0185   0.0185   0.0185   0.0185   0.0185
     0.0000   0.0000   0.0000   0.0000   0.0000   0.0000   0.0000   0.0000
     0.0000   0.0000   0.0000   0.0000

          k = 0.1667-0.0749 0.0000 ( 18216 PWs)   bands (ev):

   -15.5467 -15.3921 -14.1096 -14.0612 -12.7946 -12.7805 -12.0669 -12.0316
   -11.3977 -11.3793  -9.1329  -9.0643  -8.7738  -8.7347  -8.5183  -8.3772
    -6.4557  -6.3958  -6.2498  -6.0820  -5.9345  -5.8749  -4.6477  -4.6265
    -4.5183  -4.5069  -3.8390  -3.8171  -3.8020  -3.7046  -3.4895  -3.4505
    -3.1831  -3.0013  -2.6251  -2.5788  -2.1420  -1.9717  -1.8782  -1.7120
    -1.4831  -1.4532  -1.1686  -0.6901  -0.0164   0.0247   0.7068   0.7260
     3.9748   4.2599   4.7778   4.9028   5.8388   6.0337   6.1680   7.0011
     7.1483   7.7697   7.9427   8.0083

     occupation numbers 
     0.0185   0.0185   0.0185   0.0185   0.0185   0.0185   0.0185   0.0185
     0.0185   0.0185   0.0185   0.0185   0.0185   0.0185   0.0185   0.0185
     0.0185   0.0185   0.0185   0.0185   0.0185   0.0185   0.0185   0.0185
     0.0185   0.0185   0.0185   0.0185   0.0185   0.0185   0.0185   0.0185
     0.0185   0.0185   0.0185   0.0185   0.0185   0.0185   0.0185   0.0185
     0.0185   0.0185   0.0185   0.0185   0.0185   0.0185   0.0185   0.0185
     0.0000   0.0000   0.0000   0.0000   0.0000   0.0000   0.0000   0.0000
     0.0000   0.0000   0.0000   0.0000

          k = 0.1667-0.0749 0.2267 ( 18222 PWs)   bands (ev):

   -15.5303 -15.3955 -14.1030 -14.0608 -12.8189 -12.8034 -12.0615 -12.0325
   -11.4117 -11.3929  -9.1273  -9.0716  -8.7737  -8.7412  -8.4598  -8.3456
    -6.4238  -6.3780  -6.2295  -6.0861  -5.9306  -5.8577  -4.6439  -4.6001
    -4.5843  -4.4981  -3.9520  -3.8336  -3.7732  -3.6998  -3.5248  -3.4555
    -3.2320  -3.0639  -2.6336  -2.5608  -2.1347  -1.9382  -1.8269  -1.7328
    -1.4977  -1.3934  -1.1382  -0.6785  -0.0167   0.0215   0.7331   0.7702
     3.9788   4.2531   4.7718   4.9106   5.7418   5.9319   6.2928   7.0335
     7.1281   7.6966   7.9067   8.0924

     occupation numbers 
     0.0185   0.0185   0.0185   0.0185   0.0185   0.0185   0.0185   0.0185
     0.0185   0.0185   0.0185   0.0185   0.0185   0.0185   0.0185   0.0185
     0.0185   0.0185   0.0185   0.0185   0.0185   0.0185   0.0185   0.0185
     0.0185   0.0185   0.0185   0.0185   0.0185   0.0185   0.0185   0.0185
     0.0185   0.0185   0.0185   0.0185   0.0185   0.0185   0.0185   0.0185
     0.0185   0.0185   0.0185   0.0185   0.0185   0.0185   0.0185   0.0185
     0.0000   0.0000   0.0000   0.0000   0.0000   0.0000   0.0000   0.0000
     0.0000   0.0000   0.0000   0.0000

          k = 0.1667-0.0749 0.4534 ( 18235 PWs)   bands (ev):

   -15.4893 -15.4102 -14.0872 -14.0628 -12.8636 -12.8508 -12.0502 -12.0353
   -11.4370 -11.4230  -9.1167  -9.0889  -8.7700  -8.7533  -8.3390  -8.2821
    -6.3627  -6.3340  -6.1859  -6.1037  -5.9055  -5.8443  -4.7300  -4.6407
    -4.5382  -4.4940  -4.0238  -3.8929  -3.7691  -3.7444  -3.5590  -3.4389
    -3.3169  -3.2031  -2.6421  -2.5829  -2.1020  -1.8702  -1.7991  -1.7561
    -1.5241  -1.3749  -0.9398  -0.6481  -0.0152   0.0100   0.7945   0.8358
     4.0051   4.1880   4.8173   4.9164   5.5656   5.6884   6.6360   7.1168
     7.2037   7.5100   7.7671   7.9281

     occupation numbers 
     0.0185   0.0185   0.0185   0.0185   0.0185   0.0185   0.0185   0.0185
     0.0185   0.0185   0.0185   0.0185   0.0185   0.0185   0.0185   0.0185
[...]
     atom   21 type  1   force =    -1.07704452   -3.56021347    3.59881058
     atom   22 type  1   force =     1.06269090    3.55705884   -3.59444927
     atom   23 type  1   force =    -0.50059855   -0.98303632    1.50389428
     atom   24 type  1   force =     0.48452468    0.97207841   -1.50099472
     atom   25 type  1   force =    -1.13336796   -0.38608888    3.74753574
     atom   26 type  1   force =     1.11398795    0.37634905   -3.73812052
     atom   27 type  1   force =     2.24777341   -3.94311474   -2.58455480
     atom   28 type  1   force =    -2.24828406    3.94699200    2.59776160
     atom   29 type  2   force =     0.57213563   -2.05557887    0.58186655
     atom   30 type  2   force =    -0.56880946    2.05717722   -0.57471692
     atom   31 type  2   force =    -0.57085158   -1.25730123    1.91206031
     atom   32 type  2   force =     0.56526876    1.25731728   -1.91212043
     atom   33 type  2   force =    -0.38563799   -0.64261193    1.80032544
     atom   34 type  2   force =     0.37682933    0.63784812   -1.80006662
     atom   35 type  2   force =     1.19893764   -1.59409401   -1.41446557
     atom   36 type  2   force =    -1.19895280    1.59330345    1.41692686
     The local contribution  to forces
     atom    1 type  1   force =     1.22926474   -5.24120591   -0.77857643
     atom    2 type  1   force =    -1.23127144    5.24218548    0.78811866
     atom    3 type  1   force =    -1.11827871   -3.53461827   -3.63809724
     atom    4 type  1   force =     1.10284274    3.53814607    3.64998201
     atom    5 type  1   force =    -0.49757812   -0.98484794   -1.45906682
     atom    6 type  1   force =     0.46467804    0.97296700    1.47887422
     atom    7 type  1   force =    -1.08989300   -0.46625662   -3.72081666
     atom    8 type  1   force =     1.07588650    0.45645456    3.73207862
     atom    9 type  1   force =     2.27761982   -4.03313076    2.58344287
     atom   10 type  1   force =    -2.27986559    4.02949656   -2.57776231
     atom   11 type  2   force =     0.57555836   -2.05973518   -0.57327068
     atom   12 type  2   force =    -0.56990751    2.06105042    0.57442956
     atom   13 type  2   force =    -0.56454702   -1.26118239   -1.91278887
     atom   14 type  2   force =     0.56387049    1.26651033    1.91134088
     atom   15 type  2   force =    -0.37894047   -0.65155028   -1.79949048
     atom   16 type  2   force =     0.38002603    0.64941978    1.79903017
     atom   17 type  2   force =     1.20084267   -1.59106347    1.41774930
     atom   18 type  2   force =    -1.19635038    1.59200616   -1.41963288
     atom   19 type  1   force =    -1.22871300    5.23554705   -0.80241686
     atom   20 type  1   force =     1.22227776   -5.24406478    0.78857397
     atom   21 type  1   force =     1.12548135    3.52316731   -3.65122733
     atom   22 type  1   force =    -1.11070456   -3.51994661    3.64697076
     atom   23 type  1   force =     0.49057258    0.97714134   -1.47552646
     atom   24 type  1   force =    -0.47390264   -0.96610047    1.47296378
     atom   25 type  1   force =     1.09738413    0.44956476   -3.74004589
     atom   26 type  1   force =    -1.07778502   -0.43958239    3.73026921
     atom   27 type  1   force =    -2.27821471    4.03831234    2.56922093
     atom   28 type  1   force =     2.27885882   -4.04242650   -2.58308240
     atom   29 type  2   force =    -0.57284850    2.05737088   -0.58199318
     atom   30 type  2   force =     0.56955391   -2.05892852    0.57483430
     atom   31 type  2   force =     0.57149484    1.25782101   -1.91363274
     atom   32 type  2   force =    -0.56594094   -1.25781389    1.91372606
     atom   33 type  2   force =     0.38688979    0.64381635   -1.80202772
     atom   34 type  2   force =    -0.37805449   -0.63900333    1.80172106
     atom   35 type  2   force =    -1.19983331    1.59437236    1.41505111
     atom   36 type  2   force =     1.19983063   -1.59360275   -1.41749911
     The core correction contribution to forces
     atom    1 type  1   force =     0.00000000    0.00000000    0.00000000
     atom    2 type  1   force =     0.00000000    0.00000000    0.00000000
     atom    3 type  1   force =     0.00000000    0.00000000    0.00000000
     atom    4 type  1   force =     0.00000000    0.00000000    0.00000000
     atom    5 type  1   force =     0.00000000    0.00000000    0.00000000
     atom    6 type  1   force =     0.00000000    0.00000000    0.00000000
     atom    7 type  1   force =     0.00000000    0.00000000    0.00000000
     atom    8 type  1   force =     0.00000000    0.00000000    0.00000000
     atom    9 type  1   force =     0.00000000    0.00000000    0.00000000
     atom   10 type  1   force =     0.00000000    0.00000000    0.00000000
     atom   11 type  2   force =     0.00000000    0.00000000    0.00000000
     atom   12 type  2   force =     0.00000000    0.00000000    0.00000000
     atom   13 type  2   force =     0.00000000    0.00000000    0.00000000
     atom   14 type  2   force =     0.00000000    0.00000000    0.00000000
     atom   15 type  2   force =     0.00000000    0.00000000    0.00000000
     atom   16 type  2   force =     0.00000000    0.00000000    0.00000000
     atom   17 type  2   force =     0.00000000    0.00000000    0.00000000
     atom   18 type  2   force =     0.00000000    0.00000000    0.00000000
     atom   19 type  1   force =     0.00000000    0.00000000    0.00000000
     atom   20 type  1   force =     0.00000000    0.00000000    0.00000000
     atom   21 type  1   force =     0.00000000    0.00000000    0.00000000
     atom   22 type  1   force =     0.00000000    0.00000000    0.00000000
     atom   23 type  1   force =     0.00000000    0.00000000    0.00000000
     atom   24 type  1   force =     0.00000000    0.00000000    0.00000000
     atom   25 type  1   force =     0.00000000    0.00000000    0.00000000
     atom   26 type  1   force =     0.00000000    0.00000000    0.00000000
     atom   27 type  1   force =     0.00000000    0.00000000    0.00000000
     atom   28 type  1   force =     0.00000000    0.00000000    0.00000000
     atom   29 type  2   force =     0.00000000    0.00000000    0.00000000
     atom   30 type  2   force =     0.00000000    0.00000000    0.00000000
     atom   31 type  2   force =     0.00000000    0.00000000    0.00000000
     atom   32 type  2   force =     0.00000000    0.00000000    0.00000000
     atom   33 type  2   force =     0.00000000    0.00000000    0.00000000
     atom   34 type  2   force =     0.00000000    0.00000000    0.00000000
     atom   35 type  2   force =     0.00000000    0.00000000    0.00000000
     atom   36 type  2   force =     0.00000000    0.00000000    0.00000000
     The Hubbard contrib.    to forces
     atom    1 type  1   force =     0.00000000    0.00000000    0.00000000
     atom    2 type  1   force =     0.00000000    0.00000000    0.00000000
     atom    3 type  1   force =     0.00000000    0.00000000    0.00000000
     atom    4 type  1   force =     0.00000000    0.00000000    0.00000000
     atom    5 type  1   force =     0.00000000    0.00000000    0.00000000
     atom    6 type  1   force =     0.00000000    0.00000000    0.00000000
     atom    7 type  1   force =     0.00000000    0.00000000    0.00000000
     atom    8 type  1   force =     0.00000000    0.00000000    0.00000000
     atom    9 type  1   force =     0.00000000    0.00000000    0.00000000
     atom   10 type  1   force =     0.00000000    0.00000000    0.00000000
     atom   11 type  2   force =     0.00000000    0.00000000    0.00000000
     atom   12 type  2   force =     0.00000000    0.00000000    0.00000000
     atom   13 type  2   force =     0.00000000    0.00000000    0.00000000
     atom   14 type  2   force =     0.00000000    0.00000000    0.00000000
     atom   15 type  2   force =     0.00000000    0.00000000    0.00000000
     atom   16 type  2   force =     0.00000000    0.00000000    0.00000000
     atom   17 type  2   force =     0.00000000    0.00000000    0.00000000
     atom   18 type  2   force =     0.00000000    0.00000000    0.00000000
     atom   19 type  1   force =     0.00000000    0.00000000    0.00000000
     atom   20 type  1   force =     0.00000000    0.00000000    0.00000000
     atom   21 type  1   force =     0.00000000    0.00000000    0.00000000
     atom   22 type  1   force =     0.00000000    0.00000000    0.00000000
     atom   23 type  1   force =     0.00000000    0.00000000    0.00000000
     atom   24 type  1   force =     0.00000000    0.00000000    0.00000000
     atom   25 type  1   force =     0.00000000    0.00000000    0.00000000
     atom   26 type  1   force =     0.00000000    0.00000000    0.00000000
     atom   27 type  1   force =     0.00000000    0.00000000    0.00000000
     atom   28 type  1   force =     0.00000000    0.00000000    0.00000000
     atom   29 type  2   force =     0.00000000    0.00000000    0.00000000
     atom   30 type  2   force =     0.00000000    0.00000000    0.00000000
     atom   31 type  2   force =     0.00000000    0.00000000    0.00000000
     atom   32 type  2   force =     0.00000000    0.00000000    0.00000000
     atom   33 type  2   force =     0.00000000    0.00000000    0.00000000
     atom   34 type  2   force =     0.00000000    0.00000000    0.00000000
     atom   35 type  2   force =     0.00000000    0.00000000    0.00000000
     atom   36 type  2   force =     0.00000000    0.00000000    0.00000000
     The SCF correction term to forces
     atom    1 type  1   force =     0.00000435    0.00000054    0.00000486
     atom    2 type  1   force =    -0.00000357    0.00000098   -0.00000303
     atom    3 type  1   force =     0.00000226   -0.00000116    0.00000056
     atom    4 type  1   force =    -0.00000146    0.00000074    0.00000074
     atom    5 type  1   force =    -0.00000073    0.00000050   -0.00000067
     atom    6 type  1   force =     0.00000121   -0.00000213    0.00000146
     atom    7 type  1   force =    -0.00000374    0.00000334   -0.00000128
     atom    8 type  1   force =     0.00000392   -0.00000582    0.00000047
     atom    9 type  1   force =     0.00000242    0.00000000    0.00000039
     atom   10 type  1   force =    -0.00000246    0.00000003   -0.00000122
     atom   11 type  2   force =     0.00000061    0.00000016    0.00000047
     atom   12 type  2   force =    -0.00000057    0.00000060   -0.00000014
     atom   13 type  2   force =     0.00000015   -0.00000009   -0.00000064
     atom   14 type  2   force =    -0.00000023    0.00000022    0.00000056
     atom   15 type  2   force =    -0.00000065    0.00000036   -0.00000003
     atom   16 type  2   force =     0.00000054   -0.00000090   -0.00000021
     atom   17 type  2   force =    -0.00000030    0.00000091   -0.00000085
     atom   18 type  2   force =     0.00000022   -0.00000048    0.00000050
     atom   19 type  1   force =     0.00000218   -0.00000156   -0.00000028
     atom   20 type  1   force =    -0.00000231    0.00000385   -0.00000178
     atom   21 type  1   force =     0.00000358   -0.00000471   -0.00000195
     atom   22 type  1   force =    -0.00000235    0.00000370   -0.00000015
     atom   23 type  1   force =     0.00000066   -0.00000314   -0.00000015
     atom   24 type  1   force =     0.00000031   -0.00000086    0.00000001
     atom   25 type  1   force =    -0.00000208   -0.00000114    0.00000126
     atom   26 type  1   force =     0.00000257   -0.00000329    0.00000008
     atom   27 type  1   force =     0.00000147   -0.00000454    0.00000315
     atom   28 type  1   force =    -0.00000245    0.00000380   -0.00000133
     atom   29 type  2   force =     0.00000009    0.00000119   -0.00000046
     atom   30 type  2   force =    -0.00000037   -0.00000012    0.00000006
     atom   31 type  2   force =     0.00000049   -0.00000038   -0.00000036
     atom   32 type  2   force =    -0.00000034    0.00000053    0.00000005
     atom   33 type  2   force =    -0.00000068   -0.00000026    0.00000042
     atom   34 type  2   force =     0.00000067   -0.00000037   -0.00000027
     atom   35 type  2   force =     0.00000005   -0.00000022    0.00000040
     atom   36 type  2   force =    -0.00000058    0.00000074    0.00000022

     Dispersion contribution to forces:
     atom    1 type  1   force =    -0.00107604    0.00202075    0.00064592
     atom    2 type  1   force =     0.00105203   -0.00202785   -0.00062481
     atom    3 type  1   force =     0.00069184   -0.00010355    0.00240302
     atom    4 type  1   force =    -0.00070808    0.00011014   -0.00238491
     atom    5 type  1   force =     0.00014997    0.00010172    0.00060760
     atom    6 type  1   force =    -0.00016447   -0.00011428   -0.00060462
     atom    7 type  1   force =     0.00117524    0.00192957    0.00250824
     atom    8 type  1   force =    -0.00116173   -0.00192847   -0.00251204
     atom    9 type  1   force =    -0.00173520    0.00063236   -0.00148112
     atom   10 type  1   force =     0.00172153   -0.00064092    0.00149547
     atom   11 type  2   force =    -0.00070635    0.00176945    0.00009635
     atom   12 type  2   force =     0.00070753   -0.00177363   -0.00008672
     atom   13 type  2   force =     0.00063651    0.00050194    0.00161676
     atom   14 type  2   force =    -0.00063589   -0.00049163   -0.00161600
     atom   15 type  2   force =     0.00120126    0.00118832    0.00171033
     atom   16 type  2   force =    -0.00120469   -0.00119033   -0.00172293
     atom   17 type  2   force =    -0.00088353    0.00028316   -0.00060829
     atom   18 type  2   force =     0.00088204   -0.00028592    0.00061093
     atom   19 type  1   force =     0.00105125   -0.00202876    0.00063919
     atom   20 type  1   force =    -0.00105439    0.00201525   -0.00065177
     atom   21 type  1   force =    -0.00071479    0.00010646    0.00238463
     atom   22 type  1   force =     0.00071788   -0.00010327   -0.00239395
     atom   23 type  1   force =    -0.00017495   -0.00010882    0.00059437
     atom   24 type  1   force =     0.00016633    0.00011158   -0.00060095
     atom   25 type  1   force =    -0.00116760   -0.00191881    0.00249615
     atom   26 type  1   force =     0.00119745    0.00193256   -0.00250287
     atom   27 type  1   force =     0.00174224   -0.00064235   -0.00147759
     atom   28 type  1   force =    -0.00173186    0.00063728    0.00146477
     atom   29 type  2   force =     0.00068899   -0.00177538    0.00010051
     atom   30 type  2   force =    -0.00068736    0.00177973   -0.00011292
     atom   31 type  2   force =    -0.00063841   -0.00049687    0.00160960
     atom   32 type  2   force =     0.00065168    0.00049527   -0.00161259
     atom   33 type  2   force =    -0.00122406   -0.00118979    0.00172119
     atom   34 type  2   force =     0.00121726    0.00119812   -0.00170427
     atom   35 type  2   force =     0.00089634   -0.00029528   -0.00059621
     atom   36 type  2   force =    -0.00087796    0.00030224    0.00058952

     Total force =     0.000583     Total SCF correction =     0.000019

     Total Dispersion Force =     0.013144


     entering subroutine stress ...

          total   stress  (Ry/bohr**3)                   (kbar)     P=  -24.38
  -0.00016751  -0.00000645   0.00000018        -24.64     -0.95      0.03
  -0.00000645  -0.00016335  -0.00000007         -0.95    -24.03     -0.01
   0.00000018  -0.00000007  -0.00016637          0.03     -0.01    -24.47

     kinetic stress (kbar)   8034.63    213.92      0.29
                              213.92   7631.77      0.12
                                0.29      0.12   7672.41

     local   stress (kbar)  -3727.56   6384.40      8.10
                             6384.40 -10905.09     10.88
                                8.10     10.88 -11209.15

     nonloc. stress (kbar)   1882.31    -50.01     -0.04
                              -50.01   1972.25     -0.04
                               -0.04     -0.04   1955.07

     hartree stress (kbar)   1460.18  -1977.89     -2.84
                            -1977.89   2982.76     -4.04
                               -2.84     -4.04   3550.79

     exc-cor stress (kbar)  -1618.07    -14.74     -0.02
                              -14.74  -1590.99     -0.01
                               -0.02     -0.01  -1595.02

     corecor stress (kbar)      0.00      0.00      0.00
                                0.00      0.00      0.00
                                0.00      0.00      0.00

     ewald   stress (kbar)  -6037.85  -4553.49     -5.46
                            -4553.49   -102.66     -6.91
                               -5.46     -6.91   -386.52

     hubbard stress (kbar)      0.00      0.00      0.00
                                0.00      0.00      0.00
                                0.00      0.00      0.00

     london  stress (kbar)    -18.27     -3.14      0.00
                               -3.14    -12.07      0.01
                                0.00      0.01    -12.04

     dft-nl  stress (kbar)      0.00      0.00      0.00
                                0.00      0.00      0.00
                                0.00      0.00      0.00



     Writing output data file output.save
 
     init_run     :    172.06s CPU    198.97s WALL (       1 calls)
     electrons    :   7078.47s CPU   7763.23s WALL (       1 calls)
     forces       :      3.28s CPU      3.39s WALL (       1 calls)
     stress       :      2.44s CPU      2.52s WALL (       1 calls)

     Called by init_run:
     wfcinit      :    169.65s CPU    189.90s WALL (       1 calls)
     potinit      :      0.27s CPU      0.33s WALL (       1 calls)

     Called by electrons:
     c_bands      :   6771.80s CPU   7415.10s WALL (      13 calls)
     sum_band     :    296.90s CPU    312.68s WALL (      13 calls)
     v_of_rho     :      0.74s CPU      0.78s WALL (      14 calls)
     v_h          :      0.08s CPU      0.08s WALL (      14 calls)
     v_xc         :      0.67s CPU      0.69s WALL (      14 calls)
     mix_rho      :      0.17s CPU      0.18s WALL (      13 calls)

     Called by c_bands:
     init_us_2    :      0.73s CPU      1.26s WALL (    3248 calls)
     cegterg      :   6770.66s CPU   7392.78s WALL (    1456 calls)

     Called by sum_band:

     Called by *egterg:
     h_psi        :   2575.62s CPU   2706.49s WALL (    5701 calls)
     g_psi        :      1.95s CPU      1.91s WALL (    4133 calls)
     cdiaghg      :   3160.38s CPU   3548.63s WALL (    5589 calls)
     cegterg:over :    227.05s CPU    233.17s WALL (    4133 calls)
     cegterg:upda :    558.76s CPU    631.20s WALL (    4133 calls)
     cegterg:last :    205.42s CPU    226.51s WALL (    1456 calls)
     cdiaghg:chol :     23.38s CPU     24.50s WALL (    5589 calls)
     cdiaghg:inve :     19.82s CPU     20.53s WALL (    5589 calls)
     cdiaghg:para :    552.64s CPU    682.82s WALL (   11178 calls)

     Called by h_psi:
     h_psi:vloc   :   2517.04s CPU   2645.50s WALL (    5701 calls)
     h_psi:vnl    :     57.21s CPU     59.47s WALL (    5701 calls)
     add_vuspsi   :     10.90s CPU     11.48s WALL (    5701 calls)

     General routines
     calbec       :     48.43s CPU     50.12s WALL (    5925 calls)
     fft          :      0.91s CPU      1.80s WALL (     161 calls)
     fftw         :   2791.60s CPU   2931.16s WALL (  585066 calls)
     davcio       :      1.14s CPU     25.02s WALL (    4704 calls)
 
     Parallel routines
     fft_scatter  :   2538.72s CPU   2650.04s WALL (  585227 calls)
     EXX routines
 
     PWSCF        :     2h 0m CPU        2h13m WALL

 
   This run was terminated on:   8:34: 3  17Oct2012            

=------------------------------------------------------------------------------=
   JOB DONE.
=------------------------------------------------------------------------------=
